# vtk DataFile Version 2.0
airOutlet
ASCII
DATASET POLYDATA
POINTS 1085 float
0.0015 0.001 0.022 0.00155 0.001 0.022 0.00155 0.0015 0.022 0.0015 0.0015
0.022 0.00155 0.002 0.022 0.0015 0.002 0.022 0.00155 0.0025 0.022
0.0015 0.0025 0.022 0.00155 0.003 0.022 0.0015 0.003 0.022 0.0015
0.004 0.022 0.00155 0.004 0.022 0.00155 0.0045 0.022 0.0015 0.0045
0.022 0.00155 0.005 0.022 0.0015 0.005 0.022 0.00155 0.0055 0.022
0.0015 0.0055 0.022 0.00155 0.006 0.022 0.0015 0.006 0.022 0.0015
0.007 0.022 0.00155 0.007 0.022 0.00155 0.0075 0.022 0.0015 0.0075
0.022 0.00155 0.008 0.022 0.0015 0.008 0.022 0.00155 0.0085 0.022
0.0015 0.0085 0.022 0.00155 0.009 0.022 0.0015 0.009 0.022 0.0015
0.01 0.022 0.00155 0.01 0.022 0.00155 0.0105 0.022 0.0015 0.0105
0.022 0.00155 0.011 0.022 0.0015 0.011 0.022 0.00155 0.0115 0.022
0.0015 0.0115 0.022 0.00155 0.012 0.022 0.0015 0.012 0.022 0.0015
0.013 0.022 0.00155 0.013 0.022 0.00155 0.0135 0.022 0.0015 0.0135
0.022 0.00155 0.014 0.022 0.0015 0.014 0.022 0.00155 0.0145 0.022
0.0015 0.0145 0.022 0.00155 0.015 0.022 0.0015 0.015 0.022 0.0015
0.016 0.022 0.00155 0.016 0.022 0.00155 0.0165 0.022 0.0015 0.0165
0.022 0.00155 0.017 0.022 0.0015 0.017 0.022 0.00155 0.0175 0.022
0.0015 0.0175 0.022 0.00155 0.018 0.022 0.0015 0.018 0.022 0.0015
0.019 0.022 0.00155 0.019 0.022 0.00155 0.0195 0.022 0.0015 0.0195
0.022 0.00155 0.02 0.022 0.0015 0.02 0.022 0.00155 0.0205 0.022
0.0015 0.0205 0.022 0.00155 0.021 0.022 0.0015 0.021 0.022 0.0016
0.001 0.022 0.0016 0.0015 0.022 0.0016 0.002 0.022 0.0016 0.0025
0.022 0.0016 0.003 0.022 0.0016 0.004 0.022 0.0016 0.0045 0.022
0.0016 0.005 0.022 0.0016 0.0055 0.022 0.0016 0.006 0.022 0.0016
0.007 0.022 0.0016 0.0075 0.022 0.0016 0.008 0.022 0.0016 0.0085
0.022 0.0016 0.009 0.022 0.0016 0.01 0.022 0.0016 0.0105 0.022
0.0016 0.011 0.022 0.0016 0.0115 0.022 0.0016 0.012 0.022 0.0016
0.013 0.022 0.0016 0.0135 0.022 0.0016 0.014 0.022 0.0016 0.0145
0.022 0.0016 0.015 0.022 0.0016 0.016 0.022 0.0016 0.0165 0.022
0.0016 0.017 0.022 0.0016 0.0175 0.022 0.0016 0.018 0.022 0.0016
0.019 0.022 0.0016 0.0195 0.022 0.0016 0.02 0.022 0.0016 0.0205
0.022 0.0016 0.021 0.022 0.00165 0.001 0.022 0.00165 0.0015 0.022
0.00165 0.002 0.022 0.00165 0.0025 0.022 0.00165 0.003 0.022 0.00165
0.004 0.022 0.00165 0.0045 0.022 0.00165 0.005 0.022 0.00165 0.0055
0.022 0.00165 0.006 0.022 0.00165 0.007 0.022 0.00165 0.0075 0.022
0.00165 0.008 0.022 0.00165 0.0085 0.022 0.00165 0.009 0.022 0.00165
0.01 0.022 0.00165 0.0105 0.022 0.00165 0.011 0.022 0.00165 0.0115
0.022 0.00165 0.012 0.022 0.00165 0.013 0.022 0.00165 0.0135 0.022
0.00165 0.014 0.022 0.00165 0.0145 0.022 0.00165 0.015 0.022 0.00165
0.016 0.022 0.00165 0.0165 0.022 0.00165 0.017 0.022 0.00165 0.0175
0.022 0.00165 0.018 0.022 0.00165 0.019 0.022 0.00165 0.0195 0.022
0.00165 0.02 0.022 0.00165 0.0205 0.022 0.00165 0.021 0.022 0.0017
0.001 0.022 0.0017 0.0015 0.022 0.0017 0.002 0.022 0.0017 0.0025
0.022 0.0017 0.003 0.022 0.0017 0.004 0.022 0.0017 0.0045 0.022
0.0017 0.005 0.022 0.0017 0.0055 0.022 0.0017 0.006 0.022 0.0017
0.007 0.022 0.0017 0.0075 0.022 0.0017 0.008 0.022 0.0017 0.0085
0.022 0.0017 0.009 0.022 0.0017 0.01 0.022 0.0017 0.0105 0.022
0.0017 0.011 0.022 0.0017 0.0115 0.022 0.0017 0.012 0.022 0.0017
0.013 0.022 0.0017 0.0135 0.022 0.0017 0.014 0.022 0.0017 0.0145
0.022 0.0017 0.015 0.022 0.0017 0.016 0.022 0.0017 0.0165 0.022
0.0017 0.017 0.022 0.0017 0.0175 0.022 0.0017 0.018 0.022 0.0017
0.019 0.022 0.0017 0.0195 0.022 0.0017 0.02 0.022 0.0017 0.0205
0.022 0.0017 0.021 0.022 0.00175 0.001 0.022 0.00175 0.0015 0.022
0.00175 0.002 0.022 0.00175 0.0025 0.022 0.00175 0.003 0.022 0.00175
0.004 0.022 0.00175 0.0045 0.022 0.00175 0.005 0.022 0.00175 0.0055
0.022 0.00175 0.006 0.022 0.00175 0.007 0.022 0.00175 0.0075 0.022
0.00175 0.008 0.022 0.00175 0.0085 0.022 0.00175 0.009 0.022 0.00175
0.01 0.022 0.00175 0.0105 0.022 0.00175 0.011 0.022 0.00175 0.0115
0.022 0.00175 0.012 0.022 0.00175 0.013 0.022 0.00175 0.0135 0.022
0.00175 0.014 0.022 0.00175 0.0145 0.022 0.00175 0.015 0.022 0.00175
0.016 0.022 0.00175 0.0165 0.022 0.00175 0.017 0.022 0.00175 0.0175
0.022 0.00175 0.018 0.022 0.00175 0.019 0.022 0.00175 0.0195 0.022
0.00175 0.02 0.022 0.00175 0.0205 0.022 0.00175 0.021 0.022 0.0018
0.001 0.022 0.0018 0.0015 0.022 0.0018 0.002 0.022 0.0018 0.0025
0.022 0.0018 0.003 0.022 0.0018 0.004 0.022 0.0018 0.0045 0.022
0.0018 0.005 0.022 0.0018 0.0055 0.022 0.0018 0.006 0.022 0.0018
0.007 0.022 0.0018 0.0075 0.022 0.0018 0.008 0.022 0.0018 0.0085
0.022 0.0018 0.009 0.022 0.0018 0.01 0.022 0.0018 0.0105 0.022
0.0018 0.011 0.022 0.0018 0.0115 0.022 0.0018 0.012 0.022 0.0018
0.013 0.022 0.0018 0.0135 0.022 0.0018 0.014 0.022 0.0018 0.0145
0.022 0.0018 0.015 0.022 0.0018 0.016 0.022 0.0018 0.0165 0.022
0.0018 0.017 0.022 0.0018 0.0175 0.022 0.0018 0.018 0.022 0.0018
0.019 0.022 0.0018 0.0195 0.022 0.0018 0.02 0.022 0.0018 0.0205
0.022 0.0018 0.021 0.022 0.00185 0.001 0.022 0.00185 0.0015 0.022
0.00185 0.002 0.022 0.00185 0.0025 0.022 0.00185 0.003 0.022 0.00185
0.004 0.022 0.00185 0.0045 0.022 0.00185 0.005 0.022 0.00185 0.0055
0.022 0.00185 0.006 0.022 0.00185 0.007 0.022 0.00185 0.0075 0.022
0.00185 0.008 0.022 0.00185 0.0085 0.022 0.00185 0.009 0.022 0.00185
0.01 0.022 0.00185 0.0105 0.022 0.00185 0.011 0.022 0.00185 0.0115
0.022 0.00185 0.012 0.022 0.00185 0.013 0.022 0.00185 0.0135 0.022
0.00185 0.014 0.022 0.00185 0.0145 0.022 0.00185 0.015 0.022 0.00185
0.016 0.022 0.00185 0.0165 0.022 0.00185 0.017 0.022 0.00185 0.0175
0.022 0.00185 0.018 0.022 0.00185 0.019 0.022 0.00185 0.0195 0.022
0.00185 0.02 0.022 0.00185 0.0205 0.022 0.00185 0.021 0.022 0.0019
0.001 0.022 0.0019 0.0015 0.022 0.0019 0.002 0.022 0.0019 0.0025
0.022 0.0019 0.003 0.022 0.0019 0.004 0.022 0.0019 0.0045 0.022
0.0019 0.005 0.022 0.0019 0.0055 0.022 0.0019 0.006 0.022 0.0019
0.007 0.022 0.0019 0.0075 0.022 0.0019 0.008 0.022 0.0019 0.0085
0.022 0.0019 0.009 0.022 0.0019 0.01 0.022 0.0019 0.0105 0.022
0.0019 0.011 0.022 0.0019 0.0115 0.022 0.0019 0.012 0.022 0.0019
0.013 0.022 0.0019 0.0135 0.022 0.0019 0.014 0.022 0.0019 0.0145
0.022 0.0019 0.015 0.022 0.0019 0.016 0.022 0.0019 0.0165 0.022
0.0019 0.017 0.022 0.0019 0.0175 0.022 0.0019 0.018 0.022 0.0019
0.019 0.022 0.0019 0.0195 0.022 0.0019 0.02 0.022 0.0019 0.0205
0.022 0.0019 0.021 0.022 0.00195 0.001 0.022 0.00195 0.0015 0.022
0.00195 0.002 0.022 0.00195 0.0025 0.022 0.00195 0.003 0.022 0.00195
0.004 0.022 0.00195 0.0045 0.022 0.00195 0.005 0.022 0.00195 0.0055
0.022 0.00195 0.006 0.022 0.00195 0.007 0.022 0.00195 0.0075 0.022
0.00195 0.008 0.022 0.00195 0.0085 0.022 0.00195 0.009 0.022 0.00195
0.01 0.022 0.00195 0.0105 0.022 0.00195 0.011 0.022 0.00195 0.0115
0.022 0.00195 0.012 0.022 0.00195 0.013 0.022 0.00195 0.0135 0.022
0.00195 0.014 0.022 0.00195 0.0145 0.022 0.00195 0.015 0.022 0.00195
0.016 0.022 0.00195 0.0165 0.022 0.00195 0.017 0.022 0.00195 0.0175
0.022 0.00195 0.018 0.022 0.00195 0.019 0.022 0.00195 0.0195 0.022
0.00195 0.02 0.022 0.00195 0.0205 0.022 0.00195 0.021 0.022 0.002
0.001 0.022 0.002 0.0015 0.022 0.002 0.002 0.022 0.002 0.0025
0.022 0.002 0.003 0.022 0.002 0.004 0.022 0.002 0.0045 0.022
0.002 0.005 0.022 0.002 0.0055 0.022 0.002 0.006 0.022 0.002
0.007 0.022 0.002 0.0075 0.022 0.002 0.008 0.022 0.002 0.0085
0.022 0.002 0.009 0.022 0.002 0.01 0.022 0.002 0.0105 0.022
0.002 0.011 0.022 0.002 0.0115 0.022 0.002 0.012 0.022 0.002
0.013 0.022 0.002 0.0135 0.022 0.002 0.014 0.022 0.002 0.0145
0.022 0.002 0.015 0.022 0.002 0.016 0.022 0.002 0.0165 0.022
0.002 0.017 0.022 0.002 0.0175 0.022 0.002 0.018 0.022 0.002
0.019 0.022 0.002 0.0195 0.022 0.002 0.02 0.022 0.002 0.0205
0.022 0.002 0.021 0.022 0.00205 0.001 0.022 0.00205 0.0015 0.022
0.00205 0.002 0.022 0.00205 0.0025 0.022 0.00205 0.003 0.022 0.00205
0.004 0.022 0.00205 0.0045 0.022 0.00205 0.005 0.022 0.00205 0.0055
0.022 0.00205 0.006 0.022 0.00205 0.007 0.022 0.00205 0.0075 0.022
0.00205 0.008 0.022 0.00205 0.0085 0.022 0.00205 0.009 0.022 0.00205
0.01 0.022 0.00205 0.0105 0.022 0.00205 0.011 0.022 0.00205 0.0115
0.022 0.00205 0.012 0.022 0.00205 0.013 0.022 0.00205 0.0135 0.022
0.00205 0.014 0.022 0.00205 0.0145 0.022 0.00205 0.015 0.022 0.00205
0.016 0.022 0.00205 0.0165 0.022 0.00205 0.017 0.022 0.00205 0.0175
0.022 0.00205 0.018 0.022 0.00205 0.019 0.022 0.00205 0.0195 0.022
0.00205 0.02 0.022 0.00205 0.0205 0.022 0.00205 0.021 0.022 0.0021
0.001 0.022 0.0021 0.0015 0.022 0.0021 0.002 0.022 0.0021 0.0025
0.022 0.0021 0.003 0.022 0.0021 0.004 0.022 0.0021 0.0045 0.022
0.0021 0.005 0.022 0.0021 0.0055 0.022 0.0021 0.006 0.022 0.0021
0.007 0.022 0.0021 0.0075 0.022 0.0021 0.008 0.022 0.0021 0.0085
0.022 0.0021 0.009 0.022 0.0021 0.01 0.022 0.0021 0.0105 0.022
0.0021 0.011 0.022 0.0021 0.0115 0.022 0.0021 0.012 0.022 0.0021
0.013 0.022 0.0021 0.0135 0.022 0.0021 0.014 0.022 0.0021 0.0145
0.022 0.0021 0.015 0.022 0.0021 0.016 0.022 0.0021 0.0165 0.022
0.0021 0.017 0.022 0.0021 0.0175 0.022 0.0021 0.018 0.022 0.0021
0.019 0.022 0.0021 0.0195 0.022 0.0021 0.02 0.022 0.0021 0.0205
0.022 0.0021 0.021 0.022 0.00215 0.001 0.022 0.00215 0.0015 0.022
0.00215 0.002 0.022 0.00215 0.0025 0.022 0.00215 0.003 0.022 0.00215
0.004 0.022 0.00215 0.0045 0.022 0.00215 0.005 0.022 0.00215 0.0055
0.022 0.00215 0.006 0.022 0.00215 0.007 0.022 0.00215 0.0075 0.022
0.00215 0.008 0.022 0.00215 0.0085 0.022 0.00215 0.009 0.022 0.00215
0.01 0.022 0.00215 0.0105 0.022 0.00215 0.011 0.022 0.00215 0.0115
0.022 0.00215 0.012 0.022 0.00215 0.013 0.022 0.00215 0.0135 0.022
0.00215 0.014 0.022 0.00215 0.0145 0.022 0.00215 0.015 0.022 0.00215
0.016 0.022 0.00215 0.0165 0.022 0.00215 0.017 0.022 0.00215 0.0175
0.022 0.00215 0.018 0.022 0.00215 0.019 0.022 0.00215 0.0195 0.022
0.00215 0.02 0.022 0.00215 0.0205 0.022 0.00215 0.021 0.022 0.0022
0.001 0.022 0.0022 0.0015 0.022 0.0022 0.002 0.022 0.0022 0.0025
0.022 0.0022 0.003 0.022 0.0022 0.004 0.022 0.0022 0.0045 0.022
0.0022 0.005 0.022 0.0022 0.0055 0.022 0.0022 0.006 0.022 0.0022
[...]
CELL_DATA 840
FIELD attributes 16
patchID 1 840 float
1 1 1 1 1 1 1 1 1 1 1
1 1 1 1 1 1 1 1 1 1
1 1 1 1 1 1 1 1 1 1
1 1 1 1 1 1 1 1 1 1
1 1 1 1 1 1 1 1 1 1
1 1 1 1 1 1 1 1 1 1
1 1 1 1 1 1 1 1 1 1
1 1 1 1 1 1 1 1 1 1
1 1 1 1 1 1 1 1 1 1
1 1 1 1 1 1 1 1 1 1
1 1 1 1 1 1 1 1 1 1
1 1 1 1 1 1 1 1 1 1
1 1 1 1 1 1 1 1 1 1
1 1 1 1 1 1 1 1 1 1
1 1 1 1 1 1 1 1 1 1
1 1 1 1 1 1 1 1 1 1
1 1 1 1 1 1 1 1 1 1
1 1 1 1 1 1 1 1 1 1
1 1 1 1 1 1 1 1 1 1
1 1 1 1 1 1 1 1 1 1
1 1 1 1 1 1 1 1 1 1
1 1 1 1 1 1 1 1 1 1
1 1 1 1 1 1 1 1 1 1
1 1 1 1 1 1 1 1 1 1
1 1 1 1 1 1 1 1 1 1
1 1 1 1 1 1 1 1 1 1
1 1 1 1 1 1 1 1 1 1
1 1 1 1 1 1 1 1 1 1
1 1 1 1 1 1 1 1 1 1
1 1 1 1 1 1 1 1 1 1
1 1 1 1 1 1 1 1 1 1
1 1 1 1 1 1 1 1 1 1
1 1 1 1 1 1 1 1 1 1
1 1 1 1 1 1 1 1 1 1
1 1 1 1 1 1 1 1 1 1
1 1 1 1 1 1 1 1 1 1
1 1 1 1 1 1 1 1 1 1
1 1 1 1 1 1 1 1 1 1
1 1 1 1 1 1 1 1 1 1
1 1 1 1 1 1 1 1 1 1
1 1 1 1 1 1 1 1 1 1
1 1 1 1 1 1 1 1 1 1
1 1 1 1 1 1 1 1 1 1
1 1 1 1 1 1 1 1 1 1
1 1 1 1 1 1 1 1 1 1
1 1 1 1 1 1 1 1 1 1
1 1 1 1 1 1 1 1 1 1
1 1 1 1 1 1 1 1 1 1
1 1 1 1 1 1 1 1 1 1
1 1 1 1 1 1 1 1 1 1
1 1 1 1 1 1 1 1 1 1
1 1 1 1 1 1 1 1 1 1
1 1 1 1 1 1 1 1 1 1
1 1 1 1 1 1 1 1 1 1
1 1 1 1 1 1 1 1 1 1
1 1 1 1 1 1 1 1 1 1
1 1 1 1 1 1 1 1 1 1
1 1 1 1 1 1 1 1 1 1
1 1 1 1 1 1 1 1 1 1
1 1 1 1 1 1 1 1 1 1
1 1 1 1 1 1 1 1 1 1
1 1 1 1 1 1 1 1 1 1
1 1 1 1 1 1 1 1 1 1
1 1 1 1 1 1 1 1 1 1
1 1 1 1 1 1 1 1 1 1
1 1 1 1 1 1 1 1 1 1
1 1 1 1 1 1 1 1 1 1
1 1 1 1 1 1 1 1 1 1
1 1 1 1 1 1 1 1 1 1
1 1 1 1 1 1 1 1 1 1
1 1 1 1 1 1 1 1 1 1
1 1 1 1 1 1 1 1 1 1
1 1 1 1 1 1 1 1 1 1
1 1 1 1 1 1 1 1 1 1
1 1 1 1 1 1 1 1 1 1
1 1 1 1 1 1 1 1 1 1
1 1 1 1 1 1 1 1 1 1
1 1 1 1 1 1 1 1 1 1
1 1 1 1 1 1 1 1 1 1
1 1 1 1 1 1 1 1 1 1
1 1 1 1 1 1 1 1 1 1
1 1 1 1 1 1 1 1 1 1
1 1 1 1 1 1 1 1 1 1
1 1 1 1 1 1 1 1 1 
YH2Oair 1 840 float
0.15 0.15 0.15 0.15 0.15 0.15 0.15 0.15 0.15 0.15 0.15
0.15 0.15 0.15 0.15 0.15 0.15 0.15 0.15 0.15 0.15
0.15 0.15 0.15 0.15 0.15 0.15 0.15 0.15 0.15 0.15
0.15 0.15 0.15 0.15 0.15 0.15 0.15 0.15 0.15 0.15
0.15 0.15 0.15 0.15 0.15 0.15 0.15 0.15 0.15 0.15
0.15 0.15 0.15 0.15 0.15 0.150001 0.15 0.15 0.150001 0.150001
0.15 0.15 0.150001 0.15 0.15 0.15 0.150001 0.150001 0.15 0.15
0.150001 0.150001 0.15 0.15 0.150001 0.150001 0.15 0.15 0.150001 0.150001
0.15 0.15 0.150001 0.150001 0.15 0.15 0.150001 0.150001 0.15 0.15
0.150001 0.150001 0.15 0.15 0.150001 0.150001 0.15 0.15 0.150001 0.150001
0.15 0.15 0.150001 0.150001 0.15 0.15 0.150001 0.150001 0.15 0.15
0.150001 0.150002 0.150001 0.150001 0.150002 0.150002 0.15 0.150001 0.150001 0.150001
0.15 0.15 0.150002 0.150002 0.15 0.15 0.150001 0.150002 0.15 0.15
0.150001 0.150001 0.15 0.15 0.150001 0.150002 0.15 0.150001 0.150002 0.150003
0.150001 0.150001 0.150002 0.150002 0.150001 0.150001 0.150002 0.150002 0.150001 0.150001
0.150002 0.150003 0.150001 0.150001 0.150002 0.150003 0.150001 0.150001 0.150002 0.150002
0.150001 0.150001 0.150002 0.150003 0.150001 0.150001 0.150003 0.150005 0.150001 0.150001
0.150004 0.150004 0.150001 0.150001 0.150003 0.150003 0.150001 0.150001 0.150004 0.150004
0.150001 0.150001 0.150003 0.150004 0.150001 0.150001 0.150003 0.150003 0.150001 0.150001
0.150004 0.150004 0.150001 0.150001 0.150005 0.150007 0.150002 0.150002 0.150006 0.150006
0.150002 0.150002 0.150005 0.150005 0.150002 0.150002 0.150006 0.150006 0.150002 0.150002
0.150005 0.150006 0.150002 0.150002 0.150005 0.150005 0.150002 0.150002 0.150006 0.150006
0.150002 0.150002 0.150007 0.15001 0.150003 0.150003 0.150008 0.150008 0.150003 0.150003
0.150008 0.150007 0.150003 0.150003 0.150008 0.150008 0.150003 0.150003 0.150008 0.150008
0.150003 0.150003 0.150007 0.150008 0.150003 0.150003 0.150008 0.150008 0.150003 0.150003
0.15001 0.150014 0.150005 0.150005 0.150012 0.150012 0.150004 0.150005 0.150011 0.15001
0.150004 0.150004 0.150011 0.150012 0.150004 0.150004 0.150011 0.150012 0.150005 0.150004
0.15001 0.150011 0.150005 0.150004 0.150012 0.150012 0.150005 0.150005 0.150014 0.15002
0.150007 0.150007 0.150016 0.150017 0.150007 0.150007 0.150015 0.150014 0.150006 0.150007
0.150016 0.150017 0.150006 0.150006 0.150015 0.150017 0.150007 0.150006 0.150015 0.150015
0.150007 0.150006 0.150017 0.150016 0.150007 0.150007 0.15002 0.150028 0.15001 0.15001
0.150022 0.150024 0.15001 0.15001 0.150021 0.15002 0.150008 0.150009 0.150023 0.150023
0.150009 0.150009 0.150021 0.150023 0.150009 0.150008 0.15002 0.150021 0.15001 0.150009
0.150023 0.150022 0.15001 0.15001 0.150028 0.150038 0.150015 0.150014 0.15003 0.150032
0.150014 0.150014 0.150029 0.150028 0.150012 0.150014 0.150031 0.150031 0.150012 0.150012
0.150029 0.150032 0.150014 0.150012 0.150028 0.150029 0.150014 0.150014 0.150032 0.15003
0.150014 0.150015 0.150039 0.150052 0.150021 0.15002 0.150041 0.150044 0.15002 0.15002
0.15004 0.150037 0.150017 0.150019 0.150042 0.150041 0.150017 0.150018 0.150039 0.150043
0.150019 0.150017 0.150038 0.150039 0.15002 0.150019 0.150043 0.150041 0.15002 0.150021
0.150053 0.15007 0.150029 0.150028 0.150054 0.150059 0.150027 0.150027 0.150053 0.15005
0.150023 0.150027 0.150056 0.150054 0.150024 0.150024 0.150052 0.150057 0.150027 0.150023
0.15005 0.150052 0.150027 0.150027 0.150058 0.150054 0.150027 0.150029 0.150071 0.150092
0.15004 0.150038 0.15007 0.150078 0.150037 0.150037 0.150069 0.150066 0.150032 0.150036
0.150074 0.15007 0.150033 0.150034 0.150068 0.150075 0.150037 0.150032 0.150066 0.150069
0.150037 0.150037 0.150077 0.15007 0.150038 0.15004 0.150093 0.150121 0.150054 0.150051
0.150091 0.150101 0.150051 0.15005 0.15009 0.150086 0.150043 0.150049 0.150097 0.15009
0.150045 0.150045 0.150088 0.150098 0.15005 0.150044 0.150087 0.150089 0.15005 0.150051
0.1501 0.15009 0.150051 0.150053 0.150121 0.150156 0.150071 0.150068 0.150115 0.15013
0.150068 0.150067 0.150116 0.15011 0.150058 0.150066 0.150126 0.150115 0.15006 0.15006
0.150112 0.150127 0.150066 0.150058 0.150111 0.150115 0.150067 0.150067 0.150129 0.150115
0.150067 0.15007 0.150157 0.150199 0.150092 0.150089 0.150146 0.150166 0.150089 0.150088
0.150147 0.15014 0.150077 0.150086 0.15016 0.150145 0.150079 0.150079 0.150142 0.150162
0.150087 0.150077 0.150141 0.150146 0.150088 0.150089 0.150165 0.150145 0.150088 0.150092
0.1502 0.150251 0.150119 0.150115 0.150182 0.150209 0.150116 0.150114 0.150185 0.150176
0.1501 0.150112 0.150202 0.150181 0.150102 0.150103 0.150177 0.150204 0.150113 0.1501
0.150177 0.150183 0.150114 0.150116 0.150208 0.150182 0.150114 0.150118 0.150252 0.150313
0.150152 0.150146 0.150224 0.15026 0.150149 0.150146 0.150229 0.150219 0.150129 0.150144
0.150253 0.150223 0.150131 0.150132 0.15022 0.150254 0.150145 0.15013 0.15022 0.150228
0.150146 0.150148 0.150259 0.150224 0.150146 0.150151 0.150314 0.150387 0.150191 0.150183
0.150274 0.150321 0.150188 0.150185 0.150282 0.15027 0.150165 0.150183 0.150312 0.150273
0.150167 0.150167 0.150269 0.150314 0.150183 0.150165 0.150272 0.150281 0.150184 0.150188
0.15032 0.150274 0.150183 0.15019 0.150387 0.150474 0.150237 0.150228 0.150331 0.150392
0.150235 0.15023 0.150343 0.15033 0.150207 0.150229 0.150381 0.150331 0.150209 0.150209
0.150328 0.150383 0.150229 0.150208 0.150332 0.150342 0.15023 0.150235 0.150391 0.150332
0.150228 0.150236 0.150474 0.150575 0.150291 0.15028 0.150398 0.150474 0.150291 0.150284
0.150414 0.1504 0.150258 0.150284 0.150461 0.150398 0.150259 0.150259 0.150395 0.150464
0.150284 0.150258 0.150401 0.150413 0.150284 0.15029 0.150474 0.150398 0.150281 0.15029
0.150575 0.150689 0.150353 0.150341 0.150473 0.150568 0.150356 0.150348 0.150496 0.150479
0.150318 0.150347 0.150553 0.150475 0.150318 0.150318 0.150472 0.150556 0.150347 0.150318
0.150481 0.150494 0.150348 0.150355 0.150568 0.150473 0.150342 0.150352 0.150689 0.150817
0.150425 0.150411 0.150556 0.150672 0.150431 0.150421 0.150587 0.150569 0.150387 0.150421
0.150656 0.150562 0.150386 0.150386 0.150558 0.150659 0.150421 0.150388 0.150571 0.150586
0.150421 0.15043 0.150672 0.150557 0.150412 0.150424 0.150817 0.150955 0.150504 0.15049
0.150648 0.150786 0.150515 0.150504 0.150688 0.150668 0.150467 0.150505 0.15077 0.150657
0.150465 0.150464 0.150654 0.150772 0.150504 0.150467 0.15067 0.150687 0.150503 0.150513
0.150786 0.150649 0.150491 0.150503 0.150955 0.1511 0.150591 0.150577 0.150747 0.150907
0.150607 0.150595 0.150797 0.150774 0.150555 0.150598 0.150891 0.150761 0.150552 0.150551
0.150757 0.150894 0.150597 0.150555 0.150777 0.150796 0.150595 0.150606 0.150907 0.150748
0.150578 0.15059 0.1511 0.151247 0.150684 0.150671 0.150851 0.151029 0.150706 0.150694
0.150911 0.150887 0.150652 0.150698 0.151017 0.150871 0.150647 0.150645 0.150867 0.15102
0.150697 0.150652 0.15089 0.15091 0.150694 0.150705 0.15103 0.150852 0.150672 0.150684
0.151247 0.151389 0.150781 0.150769 0.150957 0.151149 0.15081 0.150799 0.151028 0.151001
0.150753 0.150804 0.151143 0.150985 0.150747 0.150746 0.15098 0.151145 0.150803 0.150753
0.151004 0.151026 0.150799 0.150809 0.151149 0.150958 0.150771 0.15078 0.151389 
XH2Oair 1 840 float
0.220417 0.220417 0.220417 0.220417 0.220417 0.220417 0.220417 0.220417 0.220417 0.220417 0.220417
0.220417 0.220417 0.220417 0.220417 0.220417 0.220417 0.220417 0.220417 0.220417 0.220417
0.220417 0.220417 0.220417 0.220417 0.220417 0.220417 0.220417 0.220417 0.220417 0.220417
0.220417 0.220417 0.220417 0.220417 0.220417 0.220417 0.220417 0.220417 0.220417 0.220417
0.220417 0.220417 0.220417 0.220417 0.220417 0.220417 0.220417 0.220417 0.220417 0.220417
0.220417 0.220417 0.220417 0.220417 0.220417 0.220417 0.220417 0.220417 0.220417 0.220417
0.220417 0.220417 0.220417 0.220417 0.220417 0.220417 0.220417 0.220417 0.220417 0.220417
0.220417 0.220417 0.220417 0.220417 0.220417 0.220417 0.220417 0.220417 0.220417 0.220417
0.220417 0.220417 0.220417 0.220418 0.220417 0.220417 0.220418 0.220418 0.220417 0.220417
0.220418 0.220418 0.220417 0.220417 0.220418 0.220418 0.220417 0.220417 0.220418 0.220418
0.220417 0.220417 0.220418 0.220418 0.220417 0.220417 0.220418 0.220418 0.220417 0.220417
0.220418 0.220419 0.220417 0.220417 0.220419 0.220418 0.220417 0.220417 0.220418 0.220418
0.220417 0.220417 0.220419 0.220419 0.220417 0.220417 0.220418 0.220419 0.220417 0.220417
0.220418 0.220418 0.220417 0.220417 0.220418 0.220419 0.220417 0.220417 0.220419 0.22042
0.220418 0.220418 0.22042 0.22042 0.220417 0.220418 0.220419 0.220419 0.220417 0.220417
0.22042 0.22042 0.220417 0.220417 0.220419 0.22042 0.220417 0.220417 0.220419 0.220419
0.220418 0.220417 0.22042 0.22042 0.220418 0.220418 0.22042 0.220423 0.220418 0.220418
0.220421 0.220421 0.220418 0.220418 0.220421 0.220421 0.220418 0.220418 0.220421 0.220422
0.220418 0.220418 0.220421 0.220422 0.220418 0.220418 0.220421 0.220421 0.220418 0.220418
0.220421 0.220422 0.220418 0.220418 0.220423 0.220426 0.220419 0.220419 0.220424 0.220424
0.220419 0.220419 0.220423 0.220423 0.220419 0.220419 0.220424 0.220424 0.220419 0.220419
0.220423 0.220424 0.220419 0.220419 0.220423 0.220423 0.220419 0.220419 0.220424 0.220424
0.220419 0.220419 0.220426 0.22043 0.220421 0.220421 0.220427 0.220427 0.22042 0.220421
0.220426 0.220426 0.22042 0.22042 0.220427 0.220428 0.22042 0.22042 0.220427 0.220427
0.22042 0.22042 0.220426 0.220427 0.220421 0.22042 0.220427 0.220427 0.220421 0.220421
0.22043 0.220435 0.220423 0.220423 0.220432 0.220432 0.220422 0.220423 0.220431 0.22043
0.220421 0.220422 0.220432 0.220432 0.220422 0.220422 0.220431 0.220432 0.220422 0.220422
0.22043 0.220431 0.220423 0.220422 0.220432 0.220432 0.220423 0.220423 0.220436 0.220443
0.220426 0.220426 0.220438 0.220439 0.220425 0.220426 0.220437 0.220436 0.220424 0.220425
0.220438 0.220438 0.220424 0.220424 0.220437 0.220439 0.220425 0.220424 0.220436 0.220437
0.220426 0.220425 0.220438 0.220438 0.220426 0.220426 0.220443 0.220454 0.22043 0.22043
0.220446 0.220448 0.220429 0.22043 0.220445 0.220443 0.220427 0.220429 0.220447 0.220447
0.220428 0.220428 0.220445 0.220447 0.220429 0.220427 0.220444 0.220445 0.220429 0.220429
0.220447 0.220446 0.22043 0.22043 0.220454 0.220468 0.220436 0.220435 0.220457 0.22046
0.220435 0.220435 0.220455 0.220453 0.220432 0.220435 0.220458 0.220457 0.220433 0.220433
0.220455 0.220458 0.220435 0.220432 0.220454 0.220455 0.220435 0.220435 0.220459 0.220457
0.220435 0.220436 0.220468 0.220486 0.220445 0.220443 0.22047 0.220475 0.220443 0.220443
0.220469 0.220466 0.220439 0.220442 0.220472 0.220471 0.22044 0.22044 0.220468 0.220473
0.220442 0.220439 0.220467 0.220468 0.220443 0.220442 0.220474 0.22047 0.220443 0.220445
0.220487 0.220509 0.220455 0.220454 0.220488 0.220495 0.220453 0.220453 0.220487 0.220483
0.220447 0.220452 0.220491 0.220488 0.220449 0.220449 0.220485 0.220492 0.220452 0.220448
0.220483 0.220486 0.220453 0.220452 0.220494 0.220488 0.220453 0.220455 0.22051 0.220539
0.220469 0.220467 0.22051 0.22052 0.220466 0.220466 0.220509 0.220504 0.220459 0.220465
0.220516 0.22051 0.220461 0.220461 0.220506 0.220517 0.220465 0.220459 0.220505 0.220508
0.220466 0.220466 0.220518 0.220509 0.220466 0.220469 0.22054 0.220577 0.220488 0.220484
0.220537 0.220551 0.220484 0.220483 0.220536 0.22053 0.220474 0.220482 0.220546 0.220537
0.220476 0.220477 0.220533 0.220547 0.220482 0.220474 0.220531 0.220535 0.220484 0.220484
0.22055 0.220536 0.220484 0.220487 0.220578 0.220624 0.220511 0.220507 0.22057 0.22059
0.220507 0.220506 0.220571 0.220563 0.220494 0.220504 0.220583 0.22057 0.220496 0.220497
0.220566 0.220585 0.220504 0.220494 0.220564 0.220569 0.220506 0.220506 0.220588 0.22057
0.220506 0.22051 0.220625 0.220681 0.220539 0.220535 0.22061 0.220637 0.220535 0.220534
0.220612 0.220603 0.220519 0.220531 0.220629 0.220609 0.220521 0.220522 0.220605 0.220631
0.220532 0.220519 0.220604 0.22061 0.220534 0.220535 0.220636 0.22061 0.220534 0.220539
0.220682 0.22075 0.220575 0.220569 0.220658 0.220694 0.220571 0.220568 0.220662 0.220651
0.22055 0.220566 0.220685 0.220657 0.220553 0.220553 0.220653 0.220688 0.220567 0.22055
0.220652 0.22066 0.220568 0.22057 0.220693 0.220658 0.220568 0.220574 0.220751 0.220833
0.220618 0.22061 0.220715 0.220762 0.220614 0.220611 0.220721 0.220708 0.220589 0.220608
0.220752 0.220713 0.220591 0.220592 0.220709 0.220755 0.220609 0.220589 0.22071 0.22072
0.220611 0.220614 0.220761 0.220715 0.22061 0.220617 0.220833 0.220931 0.22067 0.22066
0.220781 0.220843 0.220667 0.220662 0.220792 0.220776 0.220636 0.22066 0.220831 0.220779
0.220638 0.220638 0.220775 0.220834 0.22066 0.220636 0.220778 0.22079 0.220662 0.220666
0.220842 0.220781 0.220661 0.220669 0.220932 0.221047 0.220731 0.22072 0.220857 0.220938
0.220729 0.220723 0.220873 0.220855 0.220692 0.220721 0.220923 0.220857 0.220694 0.220694
0.220852 0.220926 0.220721 0.220692 0.220858 0.220871 0.220722 0.220729 0.220937 0.220858
0.22072 0.22073 0.221047 0.22118 0.220803 0.220789 0.220945 0.221047 0.220803 0.220795
0.220968 0.220948 0.22076 0.220793 0.22103 0.220946 0.220761 0.22076 0.220941 0.221033
0.220794 0.22076 0.22095 0.220966 0.220794 0.220802 0.221046 0.220946 0.22079 0.220802
0.221181 0.221333 0.220886 0.22087 0.221045 0.221171 0.22089 0.220879 0.221076 0.221053
0.220839 0.220878 0.221152 0.221048 0.220839 0.220839 0.221044 0.221155 0.220878 0.220839
0.221056 0.221074 0.220878 0.220888 0.221171 0.221045 0.220871 0.220885 0.221333 0.221502
0.220981 0.220963 0.221156 0.22131 0.220989 0.220976 0.221197 0.221172 0.220932 0.220976
0.221289 0.221163 0.22093 0.220929 0.221158 0.221292 0.220976 0.220932 0.221175 0.221195
0.220976 0.220987 0.22131 0.221156 0.220964 0.22098 0.221502 0.221685 0.221087 0.221067
0.221278 0.221461 0.2211 0.221086 0.221331 0.221304 0.221037 0.221087 0.22144 0.22129
0.221034 0.221033 0.221285 0.221443 0.221087 0.221037 0.221307 0.221329 0.221086 0.221099
0.221461 0.221279 0.221069 0.221086 0.221685 0.221878 0.221202 0.221183 0.221409 0.221621
0.221223 0.221207 0.221475 0.221446 0.221154 0.22121 0.221601 0.221428 0.221149 0.221148
0.221423 0.221604 0.22121 0.221154 0.221449 0.221474 0.221207 0.221221 0.221621 0.22141
0.221184 0.221201 0.221878 0.222073 0.221326 0.221307 0.221547 0.221784 0.221355 0.221339
0.221627 0.221595 0.221282 0.221344 0.221768 0.221574 0.221275 0.221274 0.221568 0.221771
0.221343 0.221282 0.221598 0.221625 0.221339 0.221353 0.221784 0.221548 0.221309 0.221325
0.222073 0.222262 0.221454 0.221438 0.221688 0.221942 0.221492 0.221478 0.221782 0.221746
0.221417 0.221484 0.221935 0.221725 0.221409 0.221407 0.221719 0.221938 0.221483 0.221417
0.22175 0.221779 0.221478 0.221491 0.221943 0.221689 0.22144 0.221453 0.222261 
rho 1 840 float
0.91432 0.914329 0.914331 0.914332 0.914313 0.914323 0.914329 0.91432 0.914328 0.914335 0.914336
0.914337 0.914357 0.914347 0.914343 0.914341 0.914343 0.914344 0.91434 0.91433 0.914322
0.914327 0.914316 0.91431 0.914334 0.914331 0.91433 0.914318 0.914399 0.914418 0.914418
0.91441 0.914393 0.91441 0.914416 0.914399 0.914406 0.914421 0.914422 0.914413 0.914434
0.914434 0.91443 0.914419 0.914419 0.91443 0.914426 0.914409 0.914401 0.914414 0.914402
0.91439 0.914412 0.914419 0.914419 0.914398 0.914452 0.914479 0.914479 0.914463 0.914445
0.91447 0.914475 0.914451 0.914457 0.91448 0.914481 0.914464 0.914484 0.914493 0.914489
0.91447 0.91447 0.914489 0.914485 0.91446 0.914452 0.914473 0.914463 0.914443 0.914464
0.914479 0.91448 0.914451 0.914488 0.914522 0.914521 0.914498 0.91448 0.914512 0.914517
0.914485 0.91449 0.914522 0.914522 0.914499 0.914518 0.914533 0.914529 0.914503 0.914505
0.91453 0.914526 0.914494 0.914486 0.914515 0.914506 0.914478 0.9145 0.914522 0.914523
0.914487 0.914513 0.914553 0.914552 0.914523 0.914504 0.914542 0.914547 0.914509 0.914514
0.914551 0.914552 0.914523 0.914541 0.914562 0.914558 0.914525 0.914529 0.914559 0.914556
0.914517 0.91451 0.914545 0.914537 0.914502 0.914524 0.914552 0.914554 0.914512 0.91453
0.914575 0.914575 0.91454 0.914521 0.914564 0.914569 0.914527 0.91453 0.914573 0.914574
0.914539 0.914557 0.914583 0.914579 0.914541 0.914545 0.914581 0.914578 0.914533 0.914528
0.914567 0.914559 0.914519 0.914542 0.914575 0.914576 0.914529 0.914541 0.914591 0.914591
0.914552 0.914534 0.914581 0.914586 0.914539 0.914542 0.914589 0.91459 0.914551 0.914569
0.9146 0.914595 0.914553 0.914557 0.914596 0.914594 0.914545 0.914541 0.914584 0.914576
0.914532 0.914554 0.914592 0.914592 0.914541 0.914549 0.914603 0.914604 0.914561 0.914543
0.914593 0.914598 0.914548 0.91455 0.914601 0.914603 0.914559 0.914577 0.914613 0.914608
0.914561 0.914565 0.914609 0.914606 0.914553 0.914551 0.914597 0.914589 0.914541 0.914563
0.914604 0.914604 0.914549 0.914554 0.914612 0.914615 0.914568 0.914549 0.914602 0.914608
0.914554 0.914557 0.914611 0.914613 0.914564 0.914583 0.914624 0.914618 0.914567 0.91457
0.914619 0.914616 0.914558 0.914557 0.914607 0.914598 0.914548 0.914569 0.914614 0.914613
0.914555 0.914557 0.914619 0.914623 0.914572 0.914553 0.91461 0.914616 0.914558 0.914561
0.91462 0.914622 0.914568 0.914586 0.914633 0.914626 0.914571 0.914574 0.914626 0.914623
0.914562 0.914562 0.914616 0.914606 0.914552 0.914572 0.914622 0.914621 0.914559 0.914557
0.914625 0.914629 0.914574 0.914555 0.914615 0.914622 0.91456 0.914563 0.914627 0.914629
0.91457 0.914588 0.91464 0.914633 0.914573 0.914575 0.914632 0.914629 0.914564 0.914564
0.914622 0.914612 0.914554 0.914574 0.914628 0.914626 0.914561 0.914555 0.914629 0.914633
0.914573 0.914555 0.914619 0.914627 0.914561 0.914563 0.914632 0.914634 0.91457 0.914588
0.914646 0.914639 0.914573 0.914574 0.914636 0.914634 0.914564 0.914565 0.914627 0.914617
0.914554 0.914573 0.914632 0.91463 0.91456 0.914551 0.914631 0.914636 0.91457 0.914552
0.914621 0.91463 0.914559 0.914561 0.914635 0.914636 0.914567 0.914585 0.914649 0.914644
0.914571 0.914571 0.914638 0.914637 0.914561 0.914562 0.91463 0.914619 0.914551 0.914569
0.914634 0.914632 0.914556 0.914542 0.91463 0.914637 0.914564 0.914546 0.914621 0.91463
0.914555 0.914555 0.914636 0.914637 0.914561 0.914579 0.914651 0.914646 0.914566 0.914565
0.914638 0.914638 0.914556 0.914556 0.91463 0.914619 0.914545 0.914563 0.914634 0.914632
0.914548 0.91453 0.914627 0.914635 0.914555 0.914536 0.914617 0.914628 0.914547 0.914547