# vtk DataFile Version 2.0
airOutlet
ASCII
DATASET POLYDATA
POINTS 1085 float
0.0015 0.001 0.022 0.00155 0.001 0.022 0.00155 0.0015 0.022 0.0015 0.0015
0.022 0.00155 0.002 0.022 0.0015 0.002 0.022 0.00155 0.0025 0.022
0.0015 0.0025 0.022 0.00155 0.003 0.022 0.0015 0.003 0.022 0.0015
0.004 0.022 0.00155 0.004 0.022 0.00155 0.0045 0.022 0.0015 0.0045
0.022 0.00155 0.005 0.022 0.0015 0.005 0.022 0.00155 0.0055 0.022
0.0015 0.0055 0.022 0.00155 0.006 0.022 0.0015 0.006 0.022 0.0015
0.007 0.022 0.00155 0.007 0.022 0.00155 0.0075 0.022 0.0015 0.0075
0.022 0.00155 0.008 0.022 0.0015 0.008 0.022 0.00155 0.0085 0.022
0.0015 0.0085 0.022 0.00155 0.009 0.022 0.0015 0.009 0.022 0.0015
0.01 0.022 0.00155 0.01 0.022 0.00155 0.0105 0.022 0.0015 0.0105
0.022 0.00155 0.011 0.022 0.0015 0.011 0.022 0.00155 0.0115 0.022
0.0015 0.0115 0.022 0.00155 0.012 0.022 0.0015 0.012 0.022 0.0015
0.013 0.022 0.00155 0.013 0.022 0.00155 0.0135 0.022 0.0015 0.0135
0.022 0.00155 0.014 0.022 0.0015 0.014 0.022 0.00155 0.0145 0.022
0.0015 0.0145 0.022 0.00155 0.015 0.022 0.0015 0.015 0.022 0.0015
0.016 0.022 0.00155 0.016 0.022 0.00155 0.0165 0.022 0.0015 0.0165
0.022 0.00155 0.017 0.022 0.0015 0.017 0.022 0.00155 0.0175 0.022
0.0015 0.0175 0.022 0.00155 0.018 0.022 0.0015 0.018 0.022 0.0015
0.019 0.022 0.00155 0.019 0.022 0.00155 0.0195 0.022 0.0015 0.0195
0.022 0.00155 0.02 0.022 0.0015 0.02 0.022 0.00155 0.0205 0.022
0.0015 0.0205 0.022 0.00155 0.021 0.022 0.0015 0.021 0.022 0.0016
0.001 0.022 0.0016 0.0015 0.022 0.0016 0.002 0.022 0.0016 0.0025
0.022 0.0016 0.003 0.022 0.0016 0.004 0.022 0.0016 0.0045 0.022
0.0016 0.005 0.022 0.0016 0.0055 0.022 0.0016 0.006 0.022 0.0016
0.007 0.022 0.0016 0.0075 0.022 0.0016 0.008 0.022 0.0016 0.0085
0.022 0.0016 0.009 0.022 0.0016 0.01 0.022 0.0016 0.0105 0.022
0.0016 0.011 0.022 0.0016 0.0115 0.022 0.0016 0.012 0.022 0.0016
0.013 0.022 0.0016 0.0135 0.022 0.0016 0.014 0.022 0.0016 0.0145
0.022 0.0016 0.015 0.022 0.0016 0.016 0.022 0.0016 0.0165 0.022
0.0016 0.017 0.022 0.0016 0.0175 0.022 0.0016 0.018 0.022 0.0016
0.019 0.022 0.0016 0.0195 0.022 0.0016 0.02 0.022 0.0016 0.0205
0.022 0.0016 0.021 0.022 0.00165 0.001 0.022 0.00165 0.0015 0.022
0.00165 0.002 0.022 0.00165 0.0025 0.022 0.00165 0.003 0.022 0.00165
0.004 0.022 0.00165 0.0045 0.022 0.00165 0.005 0.022 0.00165 0.0055
0.022 0.00165 0.006 0.022 0.00165 0.007 0.022 0.00165 0.0075 0.022
0.00165 0.008 0.022 0.00165 0.0085 0.022 0.00165 0.009 0.022 0.00165
0.01 0.022 0.00165 0.0105 0.022 0.00165 0.011 0.022 0.00165 0.0115
0.022 0.00165 0.012 0.022 0.00165 0.013 0.022 0.00165 0.0135 0.022
0.00165 0.014 0.022 0.00165 0.0145 0.022 0.00165 0.015 0.022 0.00165
0.016 0.022 0.00165 0.0165 0.022 0.00165 0.017 0.022 0.00165 0.0175
0.022 0.00165 0.018 0.022 0.00165 0.019 0.022 0.00165 0.0195 0.022
0.00165 0.02 0.022 0.00165 0.0205 0.022 0.00165 0.021 0.022 0.0017
0.001 0.022 0.0017 0.0015 0.022 0.0017 0.002 0.022 0.0017 0.0025
0.022 0.0017 0.003 0.022 0.0017 0.004 0.022 0.0017 0.0045 0.022
0.0017 0.005 0.022 0.0017 0.0055 0.022 0.0017 0.006 0.022 0.0017
0.007 0.022 0.0017 0.0075 0.022 0.0017 0.008 0.022 0.0017 0.0085
0.022 0.0017 0.009 0.022 0.0017 0.01 0.022 0.0017 0.0105 0.022
0.0017 0.011 0.022 0.0017 0.0115 0.022 0.0017 0.012 0.022 0.0017
0.013 0.022 0.0017 0.0135 0.022 0.0017 0.014 0.022 0.0017 0.0145
0.022 0.0017 0.015 0.022 0.0017 0.016 0.022 0.0017 0.0165 0.022
0.0017 0.017 0.022 0.0017 0.0175 0.022 0.0017 0.018 0.022 0.0017
0.019 0.022 0.0017 0.0195 0.022 0.0017 0.02 0.022 0.0017 0.0205
0.022 0.0017 0.021 0.022 0.00175 0.001 0.022 0.00175 0.0015 0.022
0.00175 0.002 0.022 0.00175 0.0025 0.022 0.00175 0.003 0.022 0.00175
0.004 0.022 0.00175 0.0045 0.022 0.00175 0.005 0.022 0.00175 0.0055
0.022 0.00175 0.006 0.022 0.00175 0.007 0.022 0.00175 0.0075 0.022
0.00175 0.008 0.022 0.00175 0.0085 0.022 0.00175 0.009 0.022 0.00175
0.01 0.022 0.00175 0.0105 0.022 0.00175 0.011 0.022 0.00175 0.0115
0.022 0.00175 0.012 0.022 0.00175 0.013 0.022 0.00175 0.0135 0.022
0.00175 0.014 0.022 0.00175 0.0145 0.022 0.00175 0.015 0.022 0.00175
0.016 0.022 0.00175 0.0165 0.022 0.00175 0.017 0.022 0.00175 0.0175
0.022 0.00175 0.018 0.022 0.00175 0.019 0.022 0.00175 0.0195 0.022
0.00175 0.02 0.022 0.00175 0.0205 0.022 0.00175 0.021 0.022 0.0018
0.001 0.022 0.0018 0.0015 0.022 0.0018 0.002 0.022 0.0018 0.0025
0.022 0.0018 0.003 0.022 0.0018 0.004 0.022 0.0018 0.0045 0.022
0.0018 0.005 0.022 0.0018 0.0055 0.022 0.0018 0.006 0.022 0.0018
0.007 0.022 0.0018 0.0075 0.022 0.0018 0.008 0.022 0.0018 0.0085
0.022 0.0018 0.009 0.022 0.0018 0.01 0.022 0.0018 0.0105 0.022
0.0018 0.011 0.022 0.0018 0.0115 0.022 0.0018 0.012 0.022 0.0018
0.013 0.022 0.0018 0.0135 0.022 0.0018 0.014 0.022 0.0018 0.0145
0.022 0.0018 0.015 0.022 0.0018 0.016 0.022 0.0018 0.0165 0.022
0.0018 0.017 0.022 0.0018 0.0175 0.022 0.0018 0.018 0.022 0.0018
0.019 0.022 0.0018 0.0195 0.022 0.0018 0.02 0.022 0.0018 0.0205
0.022 0.0018 0.021 0.022 0.00185 0.001 0.022 0.00185 0.0015 0.022
0.00185 0.002 0.022 0.00185 0.0025 0.022 0.00185 0.003 0.022 0.00185
0.004 0.022 0.00185 0.0045 0.022 0.00185 0.005 0.022 0.00185 0.0055
0.022 0.00185 0.006 0.022 0.00185 0.007 0.022 0.00185 0.0075 0.022
0.00185 0.008 0.022 0.00185 0.0085 0.022 0.00185 0.009 0.022 0.00185
0.01 0.022 0.00185 0.0105 0.022 0.00185 0.011 0.022 0.00185 0.0115
0.022 0.00185 0.012 0.022 0.00185 0.013 0.022 0.00185 0.0135 0.022
0.00185 0.014 0.022 0.00185 0.0145 0.022 0.00185 0.015 0.022 0.00185
0.016 0.022 0.00185 0.0165 0.022 0.00185 0.017 0.022 0.00185 0.0175
0.022 0.00185 0.018 0.022 0.00185 0.019 0.022 0.00185 0.0195 0.022
0.00185 0.02 0.022 0.00185 0.0205 0.022 0.00185 0.021 0.022 0.0019
0.001 0.022 0.0019 0.0015 0.022 0.0019 0.002 0.022 0.0019 0.0025
0.022 0.0019 0.003 0.022 0.0019 0.004 0.022 0.0019 0.0045 0.022
0.0019 0.005 0.022 0.0019 0.0055 0.022 0.0019 0.006 0.022 0.0019
0.007 0.022 0.0019 0.0075 0.022 0.0019 0.008 0.022 0.0019 0.0085
0.022 0.0019 0.009 0.022 0.0019 0.01 0.022 0.0019 0.0105 0.022
0.0019 0.011 0.022 0.0019 0.0115 0.022 0.0019 0.012 0.022 0.0019
0.013 0.022 0.0019 0.0135 0.022 0.0019 0.014 0.022 0.0019 0.0145
0.022 0.0019 0.015 0.022 0.0019 0.016 0.022 0.0019 0.0165 0.022
0.0019 0.017 0.022 0.0019 0.0175 0.022 0.0019 0.018 0.022 0.0019
0.019 0.022 0.0019 0.0195 0.022 0.0019 0.02 0.022 0.0019 0.0205
0.022 0.0019 0.021 0.022 0.00195 0.001 0.022 0.00195 0.0015 0.022
0.00195 0.002 0.022 0.00195 0.0025 0.022 0.00195 0.003 0.022 0.00195
0.004 0.022 0.00195 0.0045 0.022 0.00195 0.005 0.022 0.00195 0.0055
0.022 0.00195 0.006 0.022 0.00195 0.007 0.022 0.00195 0.0075 0.022
0.00195 0.008 0.022 0.00195 0.0085 0.022 0.00195 0.009 0.022 0.00195
0.01 0.022 0.00195 0.0105 0.022 0.00195 0.011 0.022 0.00195 0.0115
0.022 0.00195 0.012 0.022 0.00195 0.013 0.022 0.00195 0.0135 0.022
0.00195 0.014 0.022 0.00195 0.0145 0.022 0.00195 0.015 0.022 0.00195
0.016 0.022 0.00195 0.0165 0.022 0.00195 0.017 0.022 0.00195 0.0175
0.022 0.00195 0.018 0.022 0.00195 0.019 0.022 0.00195 0.0195 0.022
0.00195 0.02 0.022 0.00195 0.0205 0.022 0.00195 0.021 0.022 0.002
0.001 0.022 0.002 0.0015 0.022 0.002 0.002 0.022 0.002 0.0025
0.022 0.002 0.003 0.022 0.002 0.004 0.022 0.002 0.0045 0.022
0.002 0.005 0.022 0.002 0.0055 0.022 0.002 0.006 0.022 0.002
0.007 0.022 0.002 0.0075 0.022 0.002 0.008 0.022 0.002 0.0085
0.022 0.002 0.009 0.022 0.002 0.01 0.022 0.002 0.0105 0.022
0.002 0.011 0.022 0.002 0.0115 0.022 0.002 0.012 0.022 0.002
0.013 0.022 0.002 0.0135 0.022 0.002 0.014 0.022 0.002 0.0145
0.022 0.002 0.015 0.022 0.002 0.016 0.022 0.002 0.0165 0.022
0.002 0.017 0.022 0.002 0.0175 0.022 0.002 0.018 0.022 0.002
0.019 0.022 0.002 0.0195 0.022 0.002 0.02 0.022 0.002 0.0205
0.022 0.002 0.021 0.022 0.00205 0.001 0.022 0.00205 0.0015 0.022
0.00205 0.002 0.022 0.00205 0.0025 0.022 0.00205 0.003 0.022 0.00205
0.004 0.022 0.00205 0.0045 0.022 0.00205 0.005 0.022 0.00205 0.0055
0.022 0.00205 0.006 0.022 0.00205 0.007 0.022 0.00205 0.0075 0.022
0.00205 0.008 0.022 0.00205 0.0085 0.022 0.00205 0.009 0.022 0.00205
0.01 0.022 0.00205 0.0105 0.022 0.00205 0.011 0.022 0.00205 0.0115
0.022 0.00205 0.012 0.022 0.00205 0.013 0.022 0.00205 0.0135 0.022
0.00205 0.014 0.022 0.00205 0.0145 0.022 0.00205 0.015 0.022 0.00205
0.016 0.022 0.00205 0.0165 0.022 0.00205 0.017 0.022 0.00205 0.0175
0.022 0.00205 0.018 0.022 0.00205 0.019 0.022 0.00205 0.0195 0.022
0.00205 0.02 0.022 0.00205 0.0205 0.022 0.00205 0.021 0.022 0.0021
0.001 0.022 0.0021 0.0015 0.022 0.0021 0.002 0.022 0.0021 0.0025
0.022 0.0021 0.003 0.022 0.0021 0.004 0.022 0.0021 0.0045 0.022
0.0021 0.005 0.022 0.0021 0.0055 0.022 0.0021 0.006 0.022 0.0021
0.007 0.022 0.0021 0.0075 0.022 0.0021 0.008 0.022 0.0021 0.0085
0.022 0.0021 0.009 0.022 0.0021 0.01 0.022 0.0021 0.0105 0.022
0.0021 0.011 0.022 0.0021 0.0115 0.022 0.0021 0.012 0.022 0.0021
0.013 0.022 0.0021 0.0135 0.022 0.0021 0.014 0.022 0.0021 0.0145
0.022 0.0021 0.015 0.022 0.0021 0.016 0.022 0.0021 0.0165 0.022
0.0021 0.017 0.022 0.0021 0.0175 0.022 0.0021 0.018 0.022 0.0021
0.019 0.022 0.0021 0.0195 0.022 0.0021 0.02 0.022 0.0021 0.0205
0.022 0.0021 0.021 0.022 0.00215 0.001 0.022 0.00215 0.0015 0.022
0.00215 0.002 0.022 0.00215 0.0025 0.022 0.00215 0.003 0.022 0.00215
0.004 0.022 0.00215 0.0045 0.022 0.00215 0.005 0.022 0.00215 0.0055
0.022 0.00215 0.006 0.022 0.00215 0.007 0.022 0.00215 0.0075 0.022
0.00215 0.008 0.022 0.00215 0.0085 0.022 0.00215 0.009 0.022 0.00215
0.01 0.022 0.00215 0.0105 0.022 0.00215 0.011 0.022 0.00215 0.0115
0.022 0.00215 0.012 0.022 0.00215 0.013 0.022 0.00215 0.0135 0.022
0.00215 0.014 0.022 0.00215 0.0145 0.022 0.00215 0.015 0.022 0.00215
0.016 0.022 0.00215 0.0165 0.022 0.00215 0.017 0.022 0.00215 0.0175
0.022 0.00215 0.018 0.022 0.00215 0.019 0.022 0.00215 0.0195 0.022
0.00215 0.02 0.022 0.00215 0.0205 0.022 0.00215 0.021 0.022 0.0022
0.001 0.022 0.0022 0.0015 0.022 0.0022 0.002 0.022 0.0022 0.0025
0.022 0.0022 0.003 0.022 0.0022 0.004 0.022 0.0022 0.0045 0.022
0.0022 0.005 0.022 0.0022 0.0055 0.022 0.0022 0.006 0.022 0.0022
[...]
CELL_DATA 840
FIELD attributes 16
patchID 1 840 float
1 1 1 1 1 1 1 1 1 1 1
1 1 1 1 1 1 1 1 1 1
1 1 1 1 1 1 1 1 1 1
1 1 1 1 1 1 1 1 1 1
1 1 1 1 1 1 1 1 1 1
1 1 1 1 1 1 1 1 1 1
1 1 1 1 1 1 1 1 1 1
1 1 1 1 1 1 1 1 1 1
1 1 1 1 1 1 1 1 1 1
1 1 1 1 1 1 1 1 1 1
1 1 1 1 1 1 1 1 1 1
1 1 1 1 1 1 1 1 1 1
1 1 1 1 1 1 1 1 1 1
1 1 1 1 1 1 1 1 1 1
1 1 1 1 1 1 1 1 1 1
1 1 1 1 1 1 1 1 1 1
1 1 1 1 1 1 1 1 1 1
1 1 1 1 1 1 1 1 1 1
1 1 1 1 1 1 1 1 1 1
1 1 1 1 1 1 1 1 1 1
1 1 1 1 1 1 1 1 1 1
1 1 1 1 1 1 1 1 1 1
1 1 1 1 1 1 1 1 1 1
1 1 1 1 1 1 1 1 1 1
1 1 1 1 1 1 1 1 1 1
1 1 1 1 1 1 1 1 1 1
1 1 1 1 1 1 1 1 1 1
1 1 1 1 1 1 1 1 1 1
1 1 1 1 1 1 1 1 1 1
1 1 1 1 1 1 1 1 1 1
1 1 1 1 1 1 1 1 1 1
1 1 1 1 1 1 1 1 1 1
1 1 1 1 1 1 1 1 1 1
1 1 1 1 1 1 1 1 1 1
1 1 1 1 1 1 1 1 1 1
1 1 1 1 1 1 1 1 1 1
1 1 1 1 1 1 1 1 1 1
1 1 1 1 1 1 1 1 1 1
1 1 1 1 1 1 1 1 1 1
1 1 1 1 1 1 1 1 1 1
1 1 1 1 1 1 1 1 1 1
1 1 1 1 1 1 1 1 1 1
1 1 1 1 1 1 1 1 1 1
1 1 1 1 1 1 1 1 1 1
1 1 1 1 1 1 1 1 1 1
1 1 1 1 1 1 1 1 1 1
1 1 1 1 1 1 1 1 1 1
1 1 1 1 1 1 1 1 1 1
1 1 1 1 1 1 1 1 1 1
1 1 1 1 1 1 1 1 1 1
1 1 1 1 1 1 1 1 1 1
1 1 1 1 1 1 1 1 1 1
1 1 1 1 1 1 1 1 1 1
1 1 1 1 1 1 1 1 1 1
1 1 1 1 1 1 1 1 1 1
1 1 1 1 1 1 1 1 1 1
1 1 1 1 1 1 1 1 1 1
1 1 1 1 1 1 1 1 1 1
1 1 1 1 1 1 1 1 1 1
1 1 1 1 1 1 1 1 1 1
1 1 1 1 1 1 1 1 1 1
1 1 1 1 1 1 1 1 1 1
1 1 1 1 1 1 1 1 1 1
1 1 1 1 1 1 1 1 1 1
1 1 1 1 1 1 1 1 1 1
1 1 1 1 1 1 1 1 1 1
1 1 1 1 1 1 1 1 1 1
1 1 1 1 1 1 1 1 1 1
1 1 1 1 1 1 1 1 1 1
1 1 1 1 1 1 1 1 1 1
1 1 1 1 1 1 1 1 1 1
1 1 1 1 1 1 1 1 1 1
1 1 1 1 1 1 1 1 1 1
1 1 1 1 1 1 1 1 1 1
1 1 1 1 1 1 1 1 1 1
1 1 1 1 1 1 1 1 1 1
1 1 1 1 1 1 1 1 1 1
1 1 1 1 1 1 1 1 1 1
1 1 1 1 1 1 1 1 1 1
1 1 1 1 1 1 1 1 1 1
1 1 1 1 1 1 1 1 1 1
1 1 1 1 1 1 1 1 1 1
1 1 1 1 1 1 1 1 1 1
1 1 1 1 1 1 1 1 1 
YH2Oair 1 840 float
0.150642 0.150548 0.150521 0.150572 0.150537 0.150475 0.150474 0.150534 0.150535 0.150474 0.150474
0.150534 0.150534 0.150474 0.150474 0.150534 0.150534 0.150474 0.150474 0.150535 0.150534
0.150474 0.150475 0.150536 0.150572 0.150521 0.150548 0.150642 0.150643 0.150548 0.150521
0.150573 0.150538 0.150475 0.150474 0.150535 0.150536 0.150474 0.150474 0.150535 0.150535
0.150474 0.150474 0.150535 0.150535 0.150474 0.150474 0.150536 0.150535 0.150474 0.150475
0.150538 0.150573 0.150521 0.150548 0.150643 0.150647 0.150549 0.150522 0.150576 0.15054
0.150475 0.150475 0.150538 0.150539 0.150474 0.150474 0.150538 0.150538 0.150474 0.150474
0.150538 0.150538 0.150474 0.150474 0.150539 0.150538 0.150475 0.150475 0.15054 0.150576
0.150521 0.150548 0.150647 0.150654 0.150551 0.150523 0.150581 0.150545 0.150477 0.150476
0.150543 0.150543 0.150476 0.150476 0.150543 0.150543 0.150476 0.150476 0.150543 0.150543
0.150476 0.150476 0.150543 0.150543 0.150476 0.150477 0.150545 0.150581 0.150523 0.15055
0.150654 0.150664 0.150555 0.150527 0.150588 0.150553 0.150481 0.15048 0.15055 0.150551
0.150479 0.150479 0.15055 0.15055 0.150479 0.150479 0.15055 0.15055 0.150479 0.150479
0.150551 0.15055 0.15048 0.15048 0.150553 0.150588 0.150526 0.150555 0.150664 0.150678
0.150562 0.150533 0.150599 0.150563 0.150486 0.150485 0.150561 0.150561 0.150485 0.150485
0.15056 0.150561 0.150485 0.150485 0.150561 0.150561 0.150485 0.150485 0.150561 0.150561
0.150485 0.150486 0.150563 0.150598 0.150532 0.150562 0.150678 0.150697 0.150572 0.150541
0.150613 0.150577 0.150494 0.150493 0.150574 0.150575 0.150493 0.150493 0.150574 0.150574
0.150493 0.150493 0.150574 0.150574 0.150493 0.150493 0.150575 0.150574 0.150493 0.150494
0.150577 0.150612 0.150541 0.150572 0.150696 0.15072 0.150586 0.150553 0.15063 0.150594
0.150505 0.150504 0.150591 0.150592 0.150504 0.150504 0.150591 0.150591 0.150504 0.150504
0.150591 0.150591 0.150504 0.150504 0.150592 0.150591 0.150504 0.150505 0.150594 0.15063
0.150553 0.150586 0.150719 0.150748 0.150603 0.150568 0.150651 0.150615 0.15052 0.150518
0.150612 0.150613 0.150518 0.150518 0.150612 0.150612 0.150518 0.150518 0.150612 0.150612
0.150518 0.150518 0.150613 0.150612 0.150518 0.15052 0.150615 0.150651 0.150568 0.150603
0.150747 0.150781 0.150625 0.150587 0.150676 0.15064 0.150537 0.150536 0.150636 0.150637
0.150536 0.150535 0.150636 0.150636 0.150535 0.150535 0.150636 0.150636 0.150535 0.150536
0.150637 0.150636 0.150536 0.150537 0.15064 0.150676 0.150586 0.150625 0.150781 0.15082
0.150651 0.150609 0.150705 0.150669 0.150558 0.150557 0.150664 0.150666 0.150557 0.150556
0.150664 0.150665 0.150556 0.150556 0.150665 0.150664 0.150556 0.150557 0.150665 0.150664
0.150557 0.150558 0.150668 0.150705 0.150609 0.15065 0.150819 0.150864 0.150681 0.150635
0.150739 0.150701 0.150583 0.150581 0.150697 0.150698 0.150581 0.15058 0.150697 0.150697
0.150581 0.150581 0.150697 0.150697 0.15058 0.150581 0.150698 0.150697 0.150581 0.150583
0.150701 0.150738 0.150635 0.15068 0.150864 0.150914 0.150716 0.150666 0.150776 0.150738
0.150611 0.150609 0.150733 0.150735 0.150609 0.150609 0.150733 0.150734 0.150609 0.150609
0.150734 0.150734 0.150609 0.150609 0.150735 0.150733 0.150609 0.150611 0.150738 0.150776
0.150666 0.150715 0.150914 0.150971 0.150755 0.150701 0.150818 0.15078 0.150644 0.150641
0.150774 0.150776 0.150641 0.150641 0.150774 0.150775 0.150641 0.150641 0.150775 0.150774
0.150641 0.150641 0.150776 0.150774 0.150641 0.150644 0.15078 0.150818 0.1507 0.150755
0.15097 0.151033 0.1508 0.15074 0.150864 0.150826 0.15068 0.150677 0.150819 0.150821
0.150677 0.150677 0.150819 0.15082 0.150677 0.150677 0.15082 0.150819 0.150677 0.150677
0.150821 0.150819 0.150677 0.15068 0.150825 0.150864 0.150739 0.150799 0.151033 0.151102
0.150849 0.150783 0.150915 0.150876 0.150721 0.150717 0.150869 0.15087 0.150717 0.150717
0.150869 0.150869 0.150717 0.150717 0.150869 0.150869 0.150717 0.150717 0.15087 0.150869
0.150717 0.15072 0.150876 0.150915 0.150782 0.150849 0.151101 0.151177 0.150904 0.150831
0.150971 0.15093 0.150765 0.150761 0.150922 0.150924 0.150761 0.150761 0.150922 0.150923
0.150761 0.150761 0.150923 0.150923 0.150761 0.150761 0.150924 0.150922 0.150761 0.150765
0.15093 0.15097 0.15083 0.150903 0.151177 0.15126 0.150963 0.150882 0.15103 0.150989
0.150813 0.150809 0.15098 0.150982 0.150809 0.150808 0.150981 0.150981 0.150809 0.150809
0.150981 0.150981 0.150809 0.150809 0.150982 0.15098 0.150809 0.150813 0.150989 0.15103
0.150882 0.150963 0.151259 0.151349 0.151028 0.150939 0.151094 0.151053 0.150866 0.150861
0.151043 0.151045 0.150862 0.15086 0.151043 0.151044 0.150861 0.150861 0.151044 0.151043
0.150861 0.150862 0.151045 0.151043 0.150861 0.150866 0.151053 0.151094 0.150938 0.151027
0.151348 0.151445 0.151097 0.150999 0.151162 0.15112 0.150922 0.150917 0.151109 0.151112
0.150917 0.150916 0.15111 0.151111 0.150917 0.150917 0.151111 0.15111 0.150916 0.150917
0.151112 0.151109 0.150917 0.150922 0.15112 0.151162 0.150999 0.151096 0.151444 0.151548
0.151171 0.151063 0.151235 0.151193 0.150982 0.150977 0.15118 0.151183 0.150977 0.150976
0.151181 0.151182 0.150976 0.150976 0.151182 0.151181 0.150976 0.150977 0.151183 0.15118
0.150977 0.150982 0.151193 0.151234 0.151063 0.15117 0.151548 0.151659 0.151249 0.151131
0.151311 0.151269 0.151046 0.151039 0.151255 0.151259 0.15104 0.151038 0.151256 0.151257
0.151039 0.151039 0.151257 0.151256 0.151038 0.15104 0.151259 0.151255 0.151039 0.151045
0.151269 0.151311 0.151131 0.151249 0.151658 0.151777 0.151332 0.151203 0.151392 0.15135
0.151112 0.151106 0.151334 0.151338 0.151106 0.151104 0.151335 0.151336 0.151105 0.151105
0.151336 0.151335 0.151104 0.151106 0.151338 0.151334 0.151106 0.151112 0.151349 0.151392
0.151202 0.151331 0.151776 0.151902 0.151417 0.151277 0.151476 0.151434 0.151182 0.151174
0.151417 0.151421 0.151175 0.151173 0.151418 0.15142 0.151174 0.151174 0.15142 0.151418
0.151173 0.151175 0.151421 0.151417 0.151174 0.151181 0.151434 0.151476 0.151276 0.151417
0.1519 0.152033 0.151506 0.151353 0.151564 0.151522 0.151253 0.151246 0.151504 0.151508
0.151246 0.151244 0.151505 0.151506 0.151245 0.151245 0.151506 0.151505 0.151244 0.151246
0.151508 0.151504 0.151245 0.151253 0.151522 0.151563 0.151353 0.151505 0.152032 0.152172
0.151597 0.151432 0.151655 0.151614 0.151326 0.151318 0.151594 0.151598 0.151319 0.151317
0.151595 0.151597 0.151318 0.151318 0.151596 0.151595 0.151317 0.151319 0.151598 0.151594
0.151318 0.151326 0.151614 0.151654 0.151431 0.151596 0.15217 0.152316 0.151689 0.151511
0.151749 0.151708 0.151401 0.151392 0.151687 0.151692 0.151392 0.151391 0.151688 0.151689
0.151391 0.151391 0.151689 0.151688 0.151391 0.151392 0.151691 0.151687 0.151392 0.151401
0.151708 0.151748 0.151511 0.151688 0.152314 0.152465 0.151782 0.151591 0.151845 0.151805
0.151476 0.151467 0.151782 0.151787 0.151467 0.151465 0.151784 0.151785 0.151466 0.151466
0.151785 0.151784 0.151465 0.151467 0.151787 0.151782 0.151467 0.151475 0.151805 0.151844
0.15159 0.151781 0.152464 0.152619 0.151874 0.15167 0.151942 0.151904 0.15155 0.15154
0.15188 0.151885 0.151541 0.151539 0.151881 0.151882 0.15154 0.15154 0.151882 0.151881
0.151539 0.151541 0.151884 0.15188 0.15154 0.15155 0.151904 0.151942 0.151669 0.151873
0.152617 0.152776 0.151964 0.151747 0.152041 0.152004 0.151623 0.151613 0.151978 0.151983
0.151613 0.151612 0.151979 0.151981 0.151612 0.151612 0.151981 0.151979 0.151612 0.151613
0.151983 0.151978 0.151613 0.151623 0.152003 0.15204 0.151747 0.151963 0.152774 
XH2Oair 1 840 float
0.221271 0.221147 0.221111 0.221179 0.221131 0.221049 0.221048 0.221128 0.221129 0.221048 0.221048
0.221128 0.221128 0.221048 0.221048 0.221128 0.221128 0.221048 0.221048 0.221129 0.221128
0.221048 0.221049 0.221131 0.221179 0.221111 0.221146 0.221271 0.221273 0.221146 0.221111
0.22118 0.221132 0.221049 0.221048 0.221129 0.22113 0.221048 0.221048 0.221129 0.22113
0.221048 0.221048 0.22113 0.221129 0.221048 0.221048 0.22113 0.221129 0.221048 0.221049
0.221132 0.22118 0.221111 0.221146 0.221273 0.221278 0.221148 0.221112 0.221184 0.221136
0.22105 0.221049 0.221133 0.221134 0.221049 0.221048 0.221133 0.221133 0.221048 0.221048
0.221133 0.221133 0.221048 0.221049 0.221134 0.221133 0.221049 0.22105 0.221136 0.221183
0.221111 0.221147 0.221278 0.221287 0.221151 0.221114 0.22119 0.221143 0.221052 0.221051
0.221139 0.22114 0.221051 0.221051 0.221139 0.22114 0.221051 0.221051 0.22114 0.221139
0.221051 0.221051 0.22114 0.221139 0.221051 0.221052 0.221143 0.22119 0.221114 0.22115
0.221287 0.221301 0.221156 0.221118 0.2212 0.221152 0.221057 0.221055 0.221149 0.22115
0.221055 0.221055 0.221149 0.22115 0.221055 0.221055 0.22115 0.221149 0.221055 0.221055
0.22115 0.221149 0.221055 0.221057 0.221152 0.2212 0.221118 0.221156 0.2213 0.22132
0.221166 0.221126 0.221214 0.221166 0.221064 0.221063 0.221163 0.221164 0.221063 0.221062
0.221163 0.221163 0.221063 0.221063 0.221163 0.221163 0.221062 0.221063 0.221164 0.221163
0.221063 0.221064 0.221166 0.221214 0.221126 0.221165 0.221319 0.221344 0.221179 0.221138
0.221232 0.221185 0.221075 0.221074 0.221181 0.221182 0.221074 0.221073 0.221181 0.221181
0.221073 0.221073 0.221181 0.221181 0.221073 0.221074 0.221182 0.221181 0.221074 0.221075
0.221185 0.221232 0.221137 0.221179 0.221344 0.221375 0.221197 0.221153 0.221255 0.221207
0.22109 0.221088 0.221203 0.221204 0.221088 0.221088 0.221203 0.221204 0.221088 0.221088
0.221204 0.221203 0.221088 0.221088 0.221204 0.221203 0.221088 0.22109 0.221207 0.221255
0.221153 0.221197 0.221374 0.221412 0.22122 0.221173 0.221283 0.221235 0.221109 0.221107
0.221231 0.221232 0.221107 0.221106 0.221231 0.221231 0.221107 0.221106 0.221231 0.221231
0.221106 0.221107 0.221232 0.221231 0.221107 0.221109 0.221235 0.221283 0.221173 0.22122
0.221411 0.221456 0.221249 0.221198 0.221316 0.221268 0.221132 0.22113 0.221263 0.221264
0.22113 0.221129 0.221263 0.221264 0.22113 0.22113 0.221263 0.221263 0.221129 0.22113
0.221264 0.221263 0.22113 0.221132 0.221268 0.221316 0.221197 0.221248 0.221455 0.221507
0.221283 0.221227 0.221355 0.221306 0.22116 0.221158 0.2213 0.221302 0.221158 0.221157
0.2213 0.221301 0.221157 0.221157 0.221301 0.221301 0.221157 0.221158 0.221302 0.2213
0.221158 0.22116 0.221306 0.221355 0.221227 0.221282 0.221507 0.221566 0.221323 0.221262
0.221399 0.221349 0.221193 0.22119 0.221343 0.221345 0.22119 0.221189 0.221344 0.221344
0.22119 0.22119 0.221344 0.221344 0.221189 0.22119 0.221345 0.221344 0.22119 0.221192
0.221349 0.221399 0.221262 0.221322 0.221565 0.221632 0.221369 0.221303 0.221449 0.221399
0.22123 0.221227 0.221392 0.221394 0.221227 0.221227 0.221392 0.221393 0.221227 0.221227
0.221393 0.221392 0.221227 0.221227 0.221393 0.221392 0.221227 0.22123 0.221399 0.221449
0.221303 0.221369 0.221632 0.221707 0.221422 0.221349 0.221505 0.221453 0.221273 0.22127
0.221446 0.221448 0.22127 0.221269 0.221446 0.221447 0.22127 0.22127 0.221447 0.221446
0.221269 0.22127 0.221448 0.221446 0.22127 0.221273 0.221453 0.221504 0.221349 0.221421
0.221706 0.221789 0.221481 0.221401 0.221566 0.221514 0.221321 0.221318 0.221505 0.221508
0.221318 0.221317 0.221506 0.221507 0.221317 0.221317 0.221507 0.221506 0.221317 0.221318
0.221508 0.221505 0.221318 0.221321 0.221514 0.221566 0.2214 0.22148 0.221789 0.221881
0.221546 0.221458 0.221633 0.22158 0.221375 0.221371 0.221571 0.221573 0.221371 0.22137
0.221571 0.221572 0.22137 0.22137 0.221572 0.221571 0.22137 0.221371 0.221573 0.221571
0.221371 0.221375 0.22158 0.221633 0.221458 0.221546 0.22188 0.221981 0.221618 0.221521
0.221706 0.221653 0.221434 0.221429 0.221642 0.221645 0.221429 0.221428 0.221642 0.221643
0.221428 0.221428 0.221643 0.221642 0.221428 0.221429 0.221645 0.221642 0.221429 0.221434
0.221652 0.221706 0.221521 0.221618 0.22198 0.222089 0.221697 0.22159 0.221785 0.221731
0.221498 0.221493 0.221719 0.221722 0.221493 0.221492 0.221719 0.22172 0.221492 0.221492
0.22172 0.221719 0.221492 0.221493 0.221722 0.221719 0.221493 0.221498 0.221731 0.221785
0.22159 0.221696 0.222089 0.222208 0.221782 0.221664 0.22187 0.221815 0.221567 0.221561
0.221801 0.221805 0.221562 0.22156 0.221802 0.221803 0.221561 0.221561 0.221803 0.221802
0.22156 0.221562 0.221805 0.221801 0.221561 0.221567 0.221814 0.221869 0.221664 0.221782
0.222207 0.222335 0.221874 0.221744 0.22196 0.221905 0.221642 0.221635 0.22189 0.221893
0.221636 0.221634 0.22189 0.221892 0.221635 0.221635 0.221891 0.22189 0.221634 0.221636
0.221893 0.22189 0.221635 0.221642 0.221904 0.22196 0.221744 0.221873 0.222334 0.222472
0.221972 0.22183 0.222056 0.222 0.221721 0.221714 0.221984 0.221988 0.221714 0.221713
0.221984 0.221986 0.221713 0.221713 0.221986 0.221984 0.221713 0.221714 0.221988 0.221984
0.221714 0.221721 0.222 0.222056 0.221829 0.221971 0.22247 0.222618 0.222076 0.22192
0.222157 0.222101 0.221805 0.221797 0.222083 0.222087 0.221798 0.221796 0.222084 0.222085
0.221797 0.221797 0.222085 0.222084 0.221796 0.221798 0.222087 0.222083 0.221797 0.221805
0.222101 0.222157 0.221919 0.222075 0.222616 0.222773 0.222185 0.222014 0.222264 0.222208
0.221894 0.221885 0.222188 0.222192 0.221885 0.221884 0.222189 0.22219 0.221884 0.221884
0.22219 0.222189 0.221884 0.221885 0.222192 0.222188 0.221885 0.221894 0.222207 0.222264
0.222014 0.222184 0.222772 0.222938 0.222299 0.222112 0.222375 0.222319 0.221985 0.221976
0.222297 0.222303 0.221977 0.221975 0.222299 0.2223 0.221975 0.221975 0.2223 0.222299
0.221975 0.221976 0.222302 0.222298 0.221976 0.221985 0.222319 0.222375 0.222112 0.222298
0.222937 0.223112 0.222416 0.222214 0.222492 0.222436 0.22208 0.22207 0.222412 0.222418
0.222071 0.222069 0.222413 0.222415 0.222069 0.222069 0.222415 0.222413 0.222069 0.222071
0.222417 0.222412 0.22207 0.22208 0.222436 0.222491 0.222213 0.222415 0.223111 0.223295
0.222536 0.222317 0.222612 0.222557 0.222177 0.222166 0.222531 0.222537 0.222167 0.222165
0.222532 0.222534 0.222165 0.222165 0.222534 0.222532 0.222165 0.222167 0.222537 0.222531
0.222166 0.222177 0.222557 0.222611 0.222317 0.222535 0.223293 0.223486 0.222658 0.222422
0.222736 0.222682 0.222276 0.222264 0.222654 0.22266 0.222265 0.222262 0.222655 0.222657
0.222263 0.222263 0.222657 0.222655 0.222262 0.222265 0.22266 0.222654 0.222264 0.222275
0.222682 0.222735 0.222422 0.222657 0.223484 0.223683 0.222781 0.222528 0.222863 0.22281
0.222375 0.222363 0.22278 0.222786 0.222363 0.222361 0.222782 0.222783 0.222362 0.222361
0.222783 0.222782 0.222361 0.222363 0.222786 0.22278 0.222363 0.222374 0.22281 0.222862
0.222527 0.222779 0.223681 0.223886 0.222902 0.222632 0.222992 0.222941 0.222473 0.22246
0.222908 0.222915 0.222461 0.222458 0.22291 0.222912 0.222459 0.222459 0.222912 0.22291
0.222458 0.222461 0.222915 0.222908 0.22246 0.222473 0.22294 0.222991 0.222631 0.222901
0.223884 0.224093 0.223021 0.222735 0.223122 0.223073 0.22257 0.222557 0.223038 0.223045
0.222557 0.222555 0.22304 0.223042 0.222555 0.222555 0.223042 0.22304 0.222554 0.222557
0.223045 0.223038 0.222557 0.22257 0.223072 0.223121 0.222734 0.22302 0.224091 
rho 1 840 float
0.912961 0.913018 0.913033 0.913001 0.91302 0.913059 0.91306 0.913022 0.913022 0.91306 0.91306
0.913022 0.913022 0.91306 0.91306 0.913022 0.913022 0.91306 0.91306 0.913022 0.913022
0.91306 0.913059 0.91302 0.913001 0.913034 0.913019 0.912961 0.912962 0.913024 0.913039
0.913002 0.913022 0.913065 0.913066 0.913023 0.913023 0.913066 0.913066 0.913023 0.913023
0.913066 0.913066 0.913023 0.913023 0.913066 0.913066 0.913023 0.913023 0.913066 0.913065
0.913022 0.913002 0.913039 0.913024 0.912962 0.912961 0.913029 0.913045 0.913002 0.913022
0.91307 0.913071 0.913023 0.913023 0.913071 0.913072 0.913023 0.913023 0.913072 0.913072
0.913023 0.913023 0.913072 0.913071 0.913023 0.913023 0.913071 0.91307 0.913022 0.913002
0.913045 0.913029 0.912962 0.912959 0.913033 0.913049 0.913001 0.913021 0.913075 0.913076
0.913022 0.913022 0.913076 0.913076 0.913022 0.913022 0.913076 0.913076 0.913022 0.913022
0.913076 0.913076 0.913022 0.913022 0.913076 0.913075 0.913021 0.913001 0.913049 0.913033
0.912959 0.912955 0.913036 0.913052 0.912998 0.913018 0.913078 0.913079 0.913019 0.913019
0.913079 0.913079 0.91302 0.913019 0.91308 0.91308 0.913019 0.91302 0.913079 0.913079
0.913019 0.913019 0.913079 0.913078 0.913018 0.912998 0.913052 0.913036 0.912955 0.912948
0.913037 0.913054 0.912993 0.913013 0.91308 0.913081 0.913015 0.913014 0.913081 0.913081
0.913015 0.913015 0.913081 0.913081 0.913015 0.913015 0.913081 0.913081 0.913014 0.913015
0.913081 0.91308 0.913013 0.912993 0.913054 0.913037 0.912948 0.912938 0.913035 0.913053
0.912986 0.913006 0.91308 0.91308 0.913008 0.913008 0.913081 0.913081 0.913008 0.913008
0.913081 0.913081 0.913008 0.913008 0.913081 0.913081 0.913008 0.913008 0.91308 0.91308
0.913006 0.912987 0.913053 0.913035 0.912939 0.912926 0.913031 0.91305 0.912977 0.912997
0.913077 0.913078 0.912999 0.912999 0.913078 0.913078 0.912999 0.912999 0.913079 0.913079
0.912999 0.912999 0.913078 0.913078 0.912999 0.912999 0.913078 0.913077 0.912997 0.912977
0.91305 0.913031 0.912926 0.91291 0.913024 0.913044 0.912965 0.912986 0.913072 0.913073
0.912988 0.912987 0.913073 0.913074 0.912988 0.912988 0.913074 0.913074 0.912988 0.912988
0.913074 0.913073 0.912987 0.912988 0.913073 0.913072 0.912986 0.912965 0.913044 0.913024
0.91291 0.912891 0.913014 0.913036 0.912951 0.912971 0.913064 0.913065 0.912974 0.912973
0.913066 0.913066 0.912974 0.912974 0.913066 0.913066 0.912974 0.912974 0.913066 0.913066
0.912973 0.912974 0.913065 0.913064 0.912971 0.912951 0.913036 0.913014 0.912891 0.912868
0.913 0.913024 0.912934 0.912954 0.913053 0.913055 0.912957 0.912956 0.913055 0.913055
0.912957 0.912957 0.913055 0.913055 0.912957 0.912957 0.913055 0.913055 0.912956 0.912957
0.913055 0.913053 0.912954 0.912934 0.913024 0.913 0.912868 0.912841 0.912983 0.913009
0.912914 0.912934 0.91304 0.913041 0.912937 0.912937 0.913041 0.913042 0.912938 0.912937
0.913042 0.913042 0.912937 0.912938 0.913042 0.913041 0.912937 0.912937 0.913041 0.91304
0.912934 0.912914 0.91301 0.912983 0.912842 0.912811 0.912962 0.912991 0.91289 0.912912
0.913023 0.913024 0.912915 0.912914 0.913025 0.913025 0.912915 0.912915 0.913025 0.913025
0.912915 0.912915 0.913025 0.913025 0.912914 0.912915 0.913024 0.913023 0.912912 0.912891