# vtk DataFile Version 2.0
airOutlet
ASCII
DATASET POLYDATA
POINTS 1085 float
0.0015 0.001 0.022 0.00155 0.001 0.022 0.00155 0.0015 0.022 0.0015 0.0015
0.022 0.00155 0.002 0.022 0.0015 0.002 0.022 0.00155 0.0025 0.022
0.0015 0.0025 0.022 0.00155 0.003 0.022 0.0015 0.003 0.022 0.0015
0.004 0.022 0.00155 0.004 0.022 0.00155 0.0045 0.022 0.0015 0.0045
0.022 0.00155 0.005 0.022 0.0015 0.005 0.022 0.00155 0.0055 0.022
0.0015 0.0055 0.022 0.00155 0.006 0.022 0.0015 0.006 0.022 0.0015
0.007 0.022 0.00155 0.007 0.022 0.00155 0.0075 0.022 0.0015 0.0075
0.022 0.00155 0.008 0.022 0.0015 0.008 0.022 0.00155 0.0085 0.022
0.0015 0.0085 0.022 0.00155 0.009 0.022 0.0015 0.009 0.022 0.0015
0.01 0.022 0.00155 0.01 0.022 0.00155 0.0105 0.022 0.0015 0.0105
0.022 0.00155 0.011 0.022 0.0015 0.011 0.022 0.00155 0.0115 0.022
0.0015 0.0115 0.022 0.00155 0.012 0.022 0.0015 0.012 0.022 0.0015
0.013 0.022 0.00155 0.013 0.022 0.00155 0.0135 0.022 0.0015 0.0135
0.022 0.00155 0.014 0.022 0.0015 0.014 0.022 0.00155 0.0145 0.022
0.0015 0.0145 0.022 0.00155 0.015 0.022 0.0015 0.015 0.022 0.0015
0.016 0.022 0.00155 0.016 0.022 0.00155 0.0165 0.022 0.0015 0.0165
0.022 0.00155 0.017 0.022 0.0015 0.017 0.022 0.00155 0.0175 0.022
0.0015 0.0175 0.022 0.00155 0.018 0.022 0.0015 0.018 0.022 0.0015
0.019 0.022 0.00155 0.019 0.022 0.00155 0.0195 0.022 0.0015 0.0195
0.022 0.00155 0.02 0.022 0.0015 0.02 0.022 0.00155 0.0205 0.022
0.0015 0.0205 0.022 0.00155 0.021 0.022 0.0015 0.021 0.022 0.0016
0.001 0.022 0.0016 0.0015 0.022 0.0016 0.002 0.022 0.0016 0.0025
0.022 0.0016 0.003 0.022 0.0016 0.004 0.022 0.0016 0.0045 0.022
0.0016 0.005 0.022 0.0016 0.0055 0.022 0.0016 0.006 0.022 0.0016
0.007 0.022 0.0016 0.0075 0.022 0.0016 0.008 0.022 0.0016 0.0085
0.022 0.0016 0.009 0.022 0.0016 0.01 0.022 0.0016 0.0105 0.022
0.0016 0.011 0.022 0.0016 0.0115 0.022 0.0016 0.012 0.022 0.0016
0.013 0.022 0.0016 0.0135 0.022 0.0016 0.014 0.022 0.0016 0.0145
0.022 0.0016 0.015 0.022 0.0016 0.016 0.022 0.0016 0.0165 0.022
0.0016 0.017 0.022 0.0016 0.0175 0.022 0.0016 0.018 0.022 0.0016
0.019 0.022 0.0016 0.0195 0.022 0.0016 0.02 0.022 0.0016 0.0205
0.022 0.0016 0.021 0.022 0.00165 0.001 0.022 0.00165 0.0015 0.022
0.00165 0.002 0.022 0.00165 0.0025 0.022 0.00165 0.003 0.022 0.00165
0.004 0.022 0.00165 0.0045 0.022 0.00165 0.005 0.022 0.00165 0.0055
0.022 0.00165 0.006 0.022 0.00165 0.007 0.022 0.00165 0.0075 0.022
0.00165 0.008 0.022 0.00165 0.0085 0.022 0.00165 0.009 0.022 0.00165
0.01 0.022 0.00165 0.0105 0.022 0.00165 0.011 0.022 0.00165 0.0115
0.022 0.00165 0.012 0.022 0.00165 0.013 0.022 0.00165 0.0135 0.022
0.00165 0.014 0.022 0.00165 0.0145 0.022 0.00165 0.015 0.022 0.00165
0.016 0.022 0.00165 0.0165 0.022 0.00165 0.017 0.022 0.00165 0.0175
0.022 0.00165 0.018 0.022 0.00165 0.019 0.022 0.00165 0.0195 0.022
0.00165 0.02 0.022 0.00165 0.0205 0.022 0.00165 0.021 0.022 0.0017
0.001 0.022 0.0017 0.0015 0.022 0.0017 0.002 0.022 0.0017 0.0025
0.022 0.0017 0.003 0.022 0.0017 0.004 0.022 0.0017 0.0045 0.022
0.0017 0.005 0.022 0.0017 0.0055 0.022 0.0017 0.006 0.022 0.0017
0.007 0.022 0.0017 0.0075 0.022 0.0017 0.008 0.022 0.0017 0.0085
0.022 0.0017 0.009 0.022 0.0017 0.01 0.022 0.0017 0.0105 0.022
0.0017 0.011 0.022 0.0017 0.0115 0.022 0.0017 0.012 0.022 0.0017
0.013 0.022 0.0017 0.0135 0.022 0.0017 0.014 0.022 0.0017 0.0145
0.022 0.0017 0.015 0.022 0.0017 0.016 0.022 0.0017 0.0165 0.022
0.0017 0.017 0.022 0.0017 0.0175 0.022 0.0017 0.018 0.022 0.0017
0.019 0.022 0.0017 0.0195 0.022 0.0017 0.02 0.022 0.0017 0.0205
0.022 0.0017 0.021 0.022 0.00175 0.001 0.022 0.00175 0.0015 0.022
0.00175 0.002 0.022 0.00175 0.0025 0.022 0.00175 0.003 0.022 0.00175
0.004 0.022 0.00175 0.0045 0.022 0.00175 0.005 0.022 0.00175 0.0055
0.022 0.00175 0.006 0.022 0.00175 0.007 0.022 0.00175 0.0075 0.022
0.00175 0.008 0.022 0.00175 0.0085 0.022 0.00175 0.009 0.022 0.00175
0.01 0.022 0.00175 0.0105 0.022 0.00175 0.011 0.022 0.00175 0.0115
0.022 0.00175 0.012 0.022 0.00175 0.013 0.022 0.00175 0.0135 0.022
0.00175 0.014 0.022 0.00175 0.0145 0.022 0.00175 0.015 0.022 0.00175
0.016 0.022 0.00175 0.0165 0.022 0.00175 0.017 0.022 0.00175 0.0175
0.022 0.00175 0.018 0.022 0.00175 0.019 0.022 0.00175 0.0195 0.022
0.00175 0.02 0.022 0.00175 0.0205 0.022 0.00175 0.021 0.022 0.0018
0.001 0.022 0.0018 0.0015 0.022 0.0018 0.002 0.022 0.0018 0.0025
0.022 0.0018 0.003 0.022 0.0018 0.004 0.022 0.0018 0.0045 0.022
0.0018 0.005 0.022 0.0018 0.0055 0.022 0.0018 0.006 0.022 0.0018
0.007 0.022 0.0018 0.0075 0.022 0.0018 0.008 0.022 0.0018 0.0085
0.022 0.0018 0.009 0.022 0.0018 0.01 0.022 0.0018 0.0105 0.022
0.0018 0.011 0.022 0.0018 0.0115 0.022 0.0018 0.012 0.022 0.0018
0.013 0.022 0.0018 0.0135 0.022 0.0018 0.014 0.022 0.0018 0.0145
0.022 0.0018 0.015 0.022 0.0018 0.016 0.022 0.0018 0.0165 0.022
0.0018 0.017 0.022 0.0018 0.0175 0.022 0.0018 0.018 0.022 0.0018
0.019 0.022 0.0018 0.0195 0.022 0.0018 0.02 0.022 0.0018 0.0205
0.022 0.0018 0.021 0.022 0.00185 0.001 0.022 0.00185 0.0015 0.022
0.00185 0.002 0.022 0.00185 0.0025 0.022 0.00185 0.003 0.022 0.00185
0.004 0.022 0.00185 0.0045 0.022 0.00185 0.005 0.022 0.00185 0.0055
0.022 0.00185 0.006 0.022 0.00185 0.007 0.022 0.00185 0.0075 0.022
0.00185 0.008 0.022 0.00185 0.0085 0.022 0.00185 0.009 0.022 0.00185
0.01 0.022 0.00185 0.0105 0.022 0.00185 0.011 0.022 0.00185 0.0115
0.022 0.00185 0.012 0.022 0.00185 0.013 0.022 0.00185 0.0135 0.022
0.00185 0.014 0.022 0.00185 0.0145 0.022 0.00185 0.015 0.022 0.00185
0.016 0.022 0.00185 0.0165 0.022 0.00185 0.017 0.022 0.00185 0.0175
0.022 0.00185 0.018 0.022 0.00185 0.019 0.022 0.00185 0.0195 0.022
0.00185 0.02 0.022 0.00185 0.0205 0.022 0.00185 0.021 0.022 0.0019
0.001 0.022 0.0019 0.0015 0.022 0.0019 0.002 0.022 0.0019 0.0025
0.022 0.0019 0.003 0.022 0.0019 0.004 0.022 0.0019 0.0045 0.022
0.0019 0.005 0.022 0.0019 0.0055 0.022 0.0019 0.006 0.022 0.0019
0.007 0.022 0.0019 0.0075 0.022 0.0019 0.008 0.022 0.0019 0.0085
0.022 0.0019 0.009 0.022 0.0019 0.01 0.022 0.0019 0.0105 0.022
0.0019 0.011 0.022 0.0019 0.0115 0.022 0.0019 0.012 0.022 0.0019
0.013 0.022 0.0019 0.0135 0.022 0.0019 0.014 0.022 0.0019 0.0145
0.022 0.0019 0.015 0.022 0.0019 0.016 0.022 0.0019 0.0165 0.022
0.0019 0.017 0.022 0.0019 0.0175 0.022 0.0019 0.018 0.022 0.0019
0.019 0.022 0.0019 0.0195 0.022 0.0019 0.02 0.022 0.0019 0.0205
0.022 0.0019 0.021 0.022 0.00195 0.001 0.022 0.00195 0.0015 0.022
0.00195 0.002 0.022 0.00195 0.0025 0.022 0.00195 0.003 0.022 0.00195
0.004 0.022 0.00195 0.0045 0.022 0.00195 0.005 0.022 0.00195 0.0055
0.022 0.00195 0.006 0.022 0.00195 0.007 0.022 0.00195 0.0075 0.022
0.00195 0.008 0.022 0.00195 0.0085 0.022 0.00195 0.009 0.022 0.00195
0.01 0.022 0.00195 0.0105 0.022 0.00195 0.011 0.022 0.00195 0.0115
0.022 0.00195 0.012 0.022 0.00195 0.013 0.022 0.00195 0.0135 0.022
0.00195 0.014 0.022 0.00195 0.0145 0.022 0.00195 0.015 0.022 0.00195
0.016 0.022 0.00195 0.0165 0.022 0.00195 0.017 0.022 0.00195 0.0175
0.022 0.00195 0.018 0.022 0.00195 0.019 0.022 0.00195 0.0195 0.022
0.00195 0.02 0.022 0.00195 0.0205 0.022 0.00195 0.021 0.022 0.002
0.001 0.022 0.002 0.0015 0.022 0.002 0.002 0.022 0.002 0.0025
0.022 0.002 0.003 0.022 0.002 0.004 0.022 0.002 0.0045 0.022
0.002 0.005 0.022 0.002 0.0055 0.022 0.002 0.006 0.022 0.002
0.007 0.022 0.002 0.0075 0.022 0.002 0.008 0.022 0.002 0.0085
0.022 0.002 0.009 0.022 0.002 0.01 0.022 0.002 0.0105 0.022
0.002 0.011 0.022 0.002 0.0115 0.022 0.002 0.012 0.022 0.002
0.013 0.022 0.002 0.0135 0.022 0.002 0.014 0.022 0.002 0.0145
0.022 0.002 0.015 0.022 0.002 0.016 0.022 0.002 0.0165 0.022
0.002 0.017 0.022 0.002 0.0175 0.022 0.002 0.018 0.022 0.002
0.019 0.022 0.002 0.0195 0.022 0.002 0.02 0.022 0.002 0.0205
0.022 0.002 0.021 0.022 0.00205 0.001 0.022 0.00205 0.0015 0.022
0.00205 0.002 0.022 0.00205 0.0025 0.022 0.00205 0.003 0.022 0.00205
0.004 0.022 0.00205 0.0045 0.022 0.00205 0.005 0.022 0.00205 0.0055
0.022 0.00205 0.006 0.022 0.00205 0.007 0.022 0.00205 0.0075 0.022
0.00205 0.008 0.022 0.00205 0.0085 0.022 0.00205 0.009 0.022 0.00205
0.01 0.022 0.00205 0.0105 0.022 0.00205 0.011 0.022 0.00205 0.0115
0.022 0.00205 0.012 0.022 0.00205 0.013 0.022 0.00205 0.0135 0.022
0.00205 0.014 0.022 0.00205 0.0145 0.022 0.00205 0.015 0.022 0.00205
0.016 0.022 0.00205 0.0165 0.022 0.00205 0.017 0.022 0.00205 0.0175
0.022 0.00205 0.018 0.022 0.00205 0.019 0.022 0.00205 0.0195 0.022
0.00205 0.02 0.022 0.00205 0.0205 0.022 0.00205 0.021 0.022 0.0021
0.001 0.022 0.0021 0.0015 0.022 0.0021 0.002 0.022 0.0021 0.0025
0.022 0.0021 0.003 0.022 0.0021 0.004 0.022 0.0021 0.0045 0.022
0.0021 0.005 0.022 0.0021 0.0055 0.022 0.0021 0.006 0.022 0.0021
0.007 0.022 0.0021 0.0075 0.022 0.0021 0.008 0.022 0.0021 0.0085
0.022 0.0021 0.009 0.022 0.0021 0.01 0.022 0.0021 0.0105 0.022
0.0021 0.011 0.022 0.0021 0.0115 0.022 0.0021 0.012 0.022 0.0021
0.013 0.022 0.0021 0.0135 0.022 0.0021 0.014 0.022 0.0021 0.0145
0.022 0.0021 0.015 0.022 0.0021 0.016 0.022 0.0021 0.0165 0.022
0.0021 0.017 0.022 0.0021 0.0175 0.022 0.0021 0.018 0.022 0.0021
0.019 0.022 0.0021 0.0195 0.022 0.0021 0.02 0.022 0.0021 0.0205
0.022 0.0021 0.021 0.022 0.00215 0.001 0.022 0.00215 0.0015 0.022
0.00215 0.002 0.022 0.00215 0.0025 0.022 0.00215 0.003 0.022 0.00215
0.004 0.022 0.00215 0.0045 0.022 0.00215 0.005 0.022 0.00215 0.0055
0.022 0.00215 0.006 0.022 0.00215 0.007 0.022 0.00215 0.0075 0.022
0.00215 0.008 0.022 0.00215 0.0085 0.022 0.00215 0.009 0.022 0.00215
0.01 0.022 0.00215 0.0105 0.022 0.00215 0.011 0.022 0.00215 0.0115
0.022 0.00215 0.012 0.022 0.00215 0.013 0.022 0.00215 0.0135 0.022
0.00215 0.014 0.022 0.00215 0.0145 0.022 0.00215 0.015 0.022 0.00215
0.016 0.022 0.00215 0.0165 0.022 0.00215 0.017 0.022 0.00215 0.0175
0.022 0.00215 0.018 0.022 0.00215 0.019 0.022 0.00215 0.0195 0.022
0.00215 0.02 0.022 0.00215 0.0205 0.022 0.00215 0.021 0.022 0.0022
0.001 0.022 0.0022 0.0015 0.022 0.0022 0.002 0.022 0.0022 0.0025
0.022 0.0022 0.003 0.022 0.0022 0.004 0.022 0.0022 0.0045 0.022
0.0022 0.005 0.022 0.0022 0.0055 0.022 0.0022 0.006 0.022 0.0022
[...]
CELL_DATA 840
FIELD attributes 16
patchID 1 840 float
1 1 1 1 1 1 1 1 1 1 1
1 1 1 1 1 1 1 1 1 1
1 1 1 1 1 1 1 1 1 1
1 1 1 1 1 1 1 1 1 1
1 1 1 1 1 1 1 1 1 1
1 1 1 1 1 1 1 1 1 1
1 1 1 1 1 1 1 1 1 1
1 1 1 1 1 1 1 1 1 1
1 1 1 1 1 1 1 1 1 1
1 1 1 1 1 1 1 1 1 1
1 1 1 1 1 1 1 1 1 1
1 1 1 1 1 1 1 1 1 1
1 1 1 1 1 1 1 1 1 1
1 1 1 1 1 1 1 1 1 1
1 1 1 1 1 1 1 1 1 1
1 1 1 1 1 1 1 1 1 1
1 1 1 1 1 1 1 1 1 1
1 1 1 1 1 1 1 1 1 1
1 1 1 1 1 1 1 1 1 1
1 1 1 1 1 1 1 1 1 1
1 1 1 1 1 1 1 1 1 1
1 1 1 1 1 1 1 1 1 1
1 1 1 1 1 1 1 1 1 1
1 1 1 1 1 1 1 1 1 1
1 1 1 1 1 1 1 1 1 1
1 1 1 1 1 1 1 1 1 1
1 1 1 1 1 1 1 1 1 1
1 1 1 1 1 1 1 1 1 1
1 1 1 1 1 1 1 1 1 1
1 1 1 1 1 1 1 1 1 1
1 1 1 1 1 1 1 1 1 1
1 1 1 1 1 1 1 1 1 1
1 1 1 1 1 1 1 1 1 1
1 1 1 1 1 1 1 1 1 1
1 1 1 1 1 1 1 1 1 1
1 1 1 1 1 1 1 1 1 1
1 1 1 1 1 1 1 1 1 1
1 1 1 1 1 1 1 1 1 1
1 1 1 1 1 1 1 1 1 1
1 1 1 1 1 1 1 1 1 1
1 1 1 1 1 1 1 1 1 1
1 1 1 1 1 1 1 1 1 1
1 1 1 1 1 1 1 1 1 1
1 1 1 1 1 1 1 1 1 1
1 1 1 1 1 1 1 1 1 1
1 1 1 1 1 1 1 1 1 1
1 1 1 1 1 1 1 1 1 1
1 1 1 1 1 1 1 1 1 1
1 1 1 1 1 1 1 1 1 1
1 1 1 1 1 1 1 1 1 1
1 1 1 1 1 1 1 1 1 1
1 1 1 1 1 1 1 1 1 1
1 1 1 1 1 1 1 1 1 1
1 1 1 1 1 1 1 1 1 1
1 1 1 1 1 1 1 1 1 1
1 1 1 1 1 1 1 1 1 1
1 1 1 1 1 1 1 1 1 1
1 1 1 1 1 1 1 1 1 1
1 1 1 1 1 1 1 1 1 1
1 1 1 1 1 1 1 1 1 1
1 1 1 1 1 1 1 1 1 1
1 1 1 1 1 1 1 1 1 1
1 1 1 1 1 1 1 1 1 1
1 1 1 1 1 1 1 1 1 1
1 1 1 1 1 1 1 1 1 1
1 1 1 1 1 1 1 1 1 1
1 1 1 1 1 1 1 1 1 1
1 1 1 1 1 1 1 1 1 1
1 1 1 1 1 1 1 1 1 1
1 1 1 1 1 1 1 1 1 1
1 1 1 1 1 1 1 1 1 1
1 1 1 1 1 1 1 1 1 1
1 1 1 1 1 1 1 1 1 1
1 1 1 1 1 1 1 1 1 1
1 1 1 1 1 1 1 1 1 1
1 1 1 1 1 1 1 1 1 1
1 1 1 1 1 1 1 1 1 1
1 1 1 1 1 1 1 1 1 1
1 1 1 1 1 1 1 1 1 1
1 1 1 1 1 1 1 1 1 1
1 1 1 1 1 1 1 1 1 1
1 1 1 1 1 1 1 1 1 1
1 1 1 1 1 1 1 1 1 1
1 1 1 1 1 1 1 1 1 
YH2Oair 1 840 float
0.15 0.15 0.15 0.15 0.15 0.15 0.15 0.15 0.15 0.15 0.15
0.15 0.15 0.15 0.15 0.15 0.15 0.15 0.15 0.15 0.15
0.15 0.15 0.15 0.15 0.15 0.15 0.15 0.15 0.15 0.15
0.15 0.15 0.15 0.15 0.15 0.15 0.15 0.15 0.15 0.15
0.15 0.15 0.15 0.15 0.15 0.15 0.15 0.15 0.15 0.15
0.15 0.15 0.15 0.15 0.15 0.150001 0.15 0.15 0.150001 0.15
0.15 0.15 0.15 0.15 0.15 0.15 0.150001 0.150001 0.15 0.15
0.15 0.150001 0.15 0.15 0.150001 0.150001 0.15 0.15 0.15 0.150001
0.15 0.15 0.150001 0.150001 0.15 0.15 0.150001 0.150001 0.15 0.15
0.150001 0.150001 0.15 0.15 0.150001 0.150001 0.15 0.15 0.150001 0.150001
0.15 0.15 0.150001 0.150001 0.15 0.15 0.150001 0.150001 0.15 0.15
0.150001 0.150001 0.15 0.150001 0.150002 0.150001 0.15 0.15 0.150001 0.150001
0.15 0.15 0.150001 0.150001 0.15 0.15 0.150001 0.150002 0.15 0.150001
0.150001 0.150001 0.15 0.15 0.150001 0.150002 0.150001 0.15 0.150001 0.150002
0.150001 0.150001 0.150002 0.150002 0.150001 0.150001 0.150002 0.150002 0.150001 0.150001
0.150002 0.150002 0.150001 0.150001 0.150002 0.150002 0.150001 0.150001 0.150002 0.150002
0.150001 0.150001 0.150002 0.150002 0.150001 0.150001 0.150002 0.150003 0.150001 0.150002
0.150004 0.150003 0.150001 0.150001 0.150004 0.150003 0.150001 0.150001 0.150003 0.150003
0.150001 0.150001 0.150003 0.150004 0.150001 0.150001 0.150003 0.150004 0.150001 0.150001
0.150003 0.150004 0.150002 0.150001 0.150003 0.150005 0.150002 0.150002 0.150006 0.150005
0.150002 0.150002 0.150005 0.150005 0.150002 0.150002 0.150005 0.150005 0.150002 0.150002
0.150005 0.150006 0.150002 0.150002 0.150005 0.150006 0.150002 0.150002 0.150004 0.150006
0.150002 0.150002 0.150005 0.150008 0.150003 0.150004 0.150008 0.150007 0.150003 0.150003
0.150008 0.150007 0.150003 0.150003 0.150008 0.150008 0.150003 0.150003 0.150007 0.150008
0.150003 0.150003 0.150007 0.150008 0.150003 0.150002 0.150006 0.150009 0.150004 0.150003
0.150008 0.150011 0.150005 0.150006 0.150012 0.15001 0.150004 0.150005 0.150012 0.15001
0.150004 0.150004 0.150011 0.150011 0.150004 0.150004 0.15001 0.150011 0.150004 0.150005
0.150011 0.150012 0.150005 0.150004 0.150009 0.150012 0.150006 0.150005 0.150011 0.150016
0.150007 0.150008 0.150018 0.150014 0.150006 0.150007 0.150017 0.150015 0.150006 0.150006
0.150016 0.150016 0.150007 0.150006 0.150015 0.150016 0.150007 0.150007 0.150015 0.150017
0.150007 0.150006 0.150013 0.150018 0.150008 0.150007 0.150016 0.150022 0.15001 0.150012
0.150025 0.150019 0.150009 0.15001 0.150024 0.150021 0.150009 0.150009 0.150022 0.150022
0.15001 0.150009 0.150021 0.150022 0.150009 0.15001 0.150021 0.150024 0.150011 0.150009
0.150019 0.150025 0.150012 0.15001 0.150022 0.150031 0.150015 0.150017 0.150034 0.150027
0.150013 0.150015 0.150033 0.150028 0.150013 0.150014 0.15003 0.15003 0.150014 0.150013
0.150029 0.15003 0.150014 0.150014 0.150028 0.150033 0.150015 0.150013 0.150026 0.150035
0.150017 0.150015 0.150031 0.150043 0.150021 0.150024 0.150046 0.150036 0.150018 0.150022
0.150044 0.150038 0.150019 0.150019 0.15004 0.150041 0.15002 0.150019 0.15004 0.150041
0.150019 0.150019 0.150038 0.150045 0.150022 0.150018 0.150035 0.150047 0.150025 0.150022
0.150043 0.150057 0.15003 0.150034 0.150062 0.150048 0.150026 0.15003 0.150059 0.150051
0.150026 0.150027 0.150054 0.150054 0.150028 0.150027 0.150053 0.150054 0.150027 0.150027
0.150051 0.15006 0.150031 0.150026 0.150047 0.150063 0.150034 0.15003 0.150057 0.150077
0.150041 0.150046 0.150082 0.150064 0.150036 0.150042 0.150079 0.150067 0.150036 0.150037
0.150071 0.150072 0.150038 0.150037 0.150071 0.150071 0.150037 0.150036 0.150067 0.15008
0.150042 0.150035 0.150063 0.150083 0.150046 0.150042 0.150077 0.150101 0.150056 0.150062
0.150107 0.150083 0.150048 0.150058 0.150103 0.150086 0.150048 0.15005 0.150092 0.150094
0.150051 0.15005 0.150092 0.150093 0.15005 0.150049 0.150087 0.150104 0.150058 0.150048
0.150082 0.150108 0.150062 0.150056 0.150101 0.150131 0.150075 0.150082 0.150138 0.150108
0.150065 0.150077 0.150134 0.150111 0.150064 0.150067 0.150118 0.150121 0.150069 0.150067
0.150119 0.150119 0.150067 0.150065 0.150111 0.150135 0.150077 0.150064 0.150106 0.150139
0.150082 0.150075 0.150131 0.150169 0.150099 0.150107 0.150176 0.150138 0.150086 0.150102
0.150171 0.15014 0.150084 0.150089 0.150151 0.150154 0.15009 0.150089 0.150152 0.150152
0.150089 0.150086 0.150141 0.150172 0.150102 0.150085 0.150136 0.150177 0.150108 0.150099
0.150169 0.150215 0.150129 0.150139 0.150222 0.150174 0.150112 0.150133 0.150216 0.150176
0.15011 0.150115 0.15019 0.150194 0.150117 0.150116 0.150192 0.150191 0.150116 0.150111
0.150176 0.150217 0.150134 0.150111 0.150172 0.150223 0.150139 0.150129 0.150214 0.15027
0.150165 0.150177 0.150276 0.150217 0.150144 0.150171 0.15027 0.150218 0.15014 0.150148
0.150236 0.150242 0.15015 0.150149 0.15024 0.150237 0.150149 0.150142 0.150219 0.150271
0.150172 0.150144 0.150215 0.150277 0.150177 0.150165 0.15027 0.150336 0.15021 0.150222
0.150339 0.150269 0.150183 0.150218 0.150334 0.150269 0.150178 0.150189 0.150291 0.150298
0.150191 0.15019 0.150297 0.150292 0.150189 0.150179 0.15027 0.150334 0.150218 0.150183
0.150267 0.150341 0.150223 0.150209 0.150336 0.150415 0.150263 0.150277 0.150413 0.15033
0.15023 0.150273 0.150408 0.150328 0.150223 0.150237 0.150355 0.150365 0.150239 0.150238
0.150363 0.150357 0.150238 0.150225 0.150329 0.150408 0.150273 0.15023 0.150328 0.150415
0.150277 0.150262 0.150414 0.150505 0.150326 0.150341 0.150497 0.150401 0.150286 0.150338
0.150492 0.150397 0.150277 0.150295 0.15043 0.150442 0.150297 0.150296 0.15044 0.150431
0.150296 0.150278 0.150398 0.150493 0.150338 0.150286 0.150398 0.150499 0.150342 0.150325
0.150504 0.150609 0.1504 0.150415 0.150591 0.150481 0.150353 0.150414 0.150588 0.150475
0.15034 0.150363 0.150514 0.15053 0.150365 0.150364 0.150529 0.150516 0.150364 0.150342
0.150477 0.150588 0.150414 0.150352 0.150479 0.150593 0.150416 0.150398 0.150608 0.150724
0.150484 0.150501 0.150694 0.150571 0.150429 0.1505 0.150692 0.150563 0.150414 0.150442
0.150609 0.150629 0.150443 0.150442 0.150627 0.150611 0.150443 0.150415 0.150565 0.150692
0.150501 0.150429 0.150569 0.150696 0.150501 0.150482 0.150723 0.150848 0.150578 0.150596
0.150802 0.15067 0.150515 0.150597 0.150804 0.15066 0.150497 0.150532 0.150713 0.150736
0.150532 0.15053 0.150735 0.150715 0.150532 0.150498 0.150662 0.150804 0.150598 0.150516
0.150668 0.150805 0.150596 0.150576 0.150847 0.150978 0.15068 0.150699 0.150913 0.150776
0.150612 0.150704 0.15092 0.150763 0.15059 0.150631 0.150823 0.15085 0.150629 0.150628
0.150848 0.150826 0.150631 0.150591 0.150766 0.150919 0.150704 0.150612 0.150773 0.150916
0.1507 0.150679 0.150977 0.151109 0.150789 0.150809 0.151023 0.150884 0.150716 0.150816
0.151034 0.150871 0.150691 0.150737 0.150936 0.150966 0.150734 0.150733 0.150965 0.150939
0.150738 0.150693 0.150874 0.151033 0.150816 0.150717 0.150881 0.151026 0.15081 0.150787
0.151107 0.151233 0.150901 0.150922 0.151127 0.150993 0.150827 0.150931 0.151143 0.15098
0.150799 0.150848 0.151049 0.151081 0.150844 0.150842 0.151079 0.151052 0.150849 0.150801
0.150983 0.151142 0.150931 0.150827 0.15099 0.151129 0.150923 0.150899 0.151232 
XH2Oair 1 840 float
0.220417 0.220417 0.220417 0.220417 0.220417 0.220417 0.220417 0.220417 0.220417 0.220417 0.220417
0.220417 0.220417 0.220417 0.220417 0.220417 0.220417 0.220417 0.220417 0.220417 0.220417
0.220417 0.220417 0.220417 0.220417 0.220417 0.220417 0.220417 0.220417 0.220417 0.220417
0.220417 0.220417 0.220417 0.220417 0.220417 0.220417 0.220417 0.220417 0.220417 0.220417
0.220417 0.220417 0.220417 0.220417 0.220417 0.220417 0.220417 0.220417 0.220417 0.220417
0.220417 0.220417 0.220417 0.220417 0.220417 0.220417 0.220417 0.220417 0.220417 0.220417
0.220417 0.220417 0.220417 0.220417 0.220417 0.220417 0.220417 0.220417 0.220417 0.220417
0.220417 0.220417 0.220417 0.220417 0.220417 0.220417 0.220417 0.220417 0.220417 0.220417
0.220417 0.220417 0.220417 0.220418 0.220417 0.220417 0.220418 0.220417 0.220417 0.220417
0.220418 0.220418 0.220417 0.220417 0.220418 0.220418 0.220417 0.220417 0.220417 0.220418
0.220417 0.220417 0.220418 0.220418 0.220417 0.220417 0.220417 0.220418 0.220417 0.220417
0.220418 0.220418 0.220417 0.220417 0.220419 0.220418 0.220417 0.220417 0.220418 0.220418
0.220417 0.220417 0.220418 0.220418 0.220417 0.220417 0.220418 0.220419 0.220417 0.220417
0.220418 0.220418 0.220417 0.220417 0.220418 0.220419 0.220417 0.220417 0.220418 0.220419
0.220417 0.220418 0.22042 0.220419 0.220417 0.220417 0.220419 0.220419 0.220417 0.220417
0.220419 0.220419 0.220417 0.220417 0.220419 0.22042 0.220417 0.220418 0.220419 0.22042
0.220417 0.220417 0.220419 0.22042 0.220418 0.220417 0.220419 0.220421 0.220418 0.220419
0.220421 0.22042 0.220418 0.220418 0.220421 0.220421 0.220418 0.220418 0.220421 0.220421
0.220418 0.220418 0.220421 0.220421 0.220418 0.220418 0.220421 0.220421 0.220418 0.220418
0.22042 0.220422 0.220419 0.220418 0.220421 0.220423 0.220419 0.22042 0.220424 0.220423
0.220419 0.220419 0.220424 0.220423 0.220419 0.220419 0.220423 0.220423 0.220419 0.220419
0.220423 0.220424 0.220419 0.220419 0.220423 0.220424 0.220419 0.220419 0.220422 0.220424
0.22042 0.220419 0.220423 0.220427 0.22042 0.220421 0.220428 0.220425 0.22042 0.220421
0.220427 0.220426 0.22042 0.22042 0.220427 0.220426 0.22042 0.22042 0.220426 0.220427
0.22042 0.22042 0.220426 0.220427 0.220421 0.22042 0.220425 0.220428 0.220421 0.220421
0.220427 0.220431 0.220423 0.220424 0.220433 0.220429 0.220422 0.220423 0.220432 0.22043
0.220422 0.220422 0.220431 0.220431 0.220422 0.220422 0.22043 0.220432 0.220422 0.220423
0.22043 0.220432 0.220423 0.220422 0.220429 0.220433 0.220424 0.220423 0.220431 0.220437
0.220426 0.220428 0.22044 0.220435 0.220425 0.220426 0.220439 0.220436 0.220425 0.220425
0.220437 0.220437 0.220425 0.220425 0.220436 0.220437 0.220425 0.220425 0.220436 0.220439
0.220426 0.220424 0.220434 0.22044 0.220428 0.220426 0.220437 0.220446 0.22043 0.220433
0.220449 0.220442 0.220428 0.22043 0.220448 0.220444 0.220429 0.220429 0.220445 0.220445
0.220429 0.220429 0.220444 0.220446 0.220429 0.220429 0.220444 0.220448 0.22043 0.220428
0.220441 0.22045 0.220433 0.22043 0.220446 0.220458 0.220436 0.220439 0.220462 0.220452
0.220434 0.220437 0.22046 0.220454 0.220434 0.220434 0.220456 0.220456 0.220435 0.220434
0.220455 0.220456 0.220435 0.220435 0.220454 0.22046 0.220437 0.220433 0.220451 0.220462
0.22044 0.220437 0.220458 0.220473 0.220445 0.220449 0.220478 0.220464 0.220441 0.220445
0.220475 0.220467 0.220441 0.220442 0.22047 0.22047 0.220443 0.220442 0.220469 0.22047
0.220442 0.220442 0.220467 0.220476 0.220445 0.220441 0.220463 0.220479 0.220449 0.220445
0.220473 0.220493 0.220456 0.220461 0.220499 0.220481 0.220451 0.220457 0.220496 0.220484
0.220451 0.220452 0.220488 0.220489 0.220453 0.220452 0.220487 0.220488 0.220452 0.220452
0.220484 0.220497 0.220457 0.22045 0.220479 0.2205 0.220462 0.220457 0.220493 0.220518
0.220471 0.220478 0.220526 0.220501 0.220464 0.220473 0.220521 0.220505 0.220464 0.220465
0.22051 0.220512 0.220467 0.220466 0.22051 0.220511 0.220466 0.220465 0.220505 0.220522
0.220473 0.220463 0.2205 0.220527 0.220478 0.220472 0.220518 0.220551 0.220491 0.220499
0.220559 0.220527 0.220481 0.220493 0.220554 0.220531 0.220481 0.220483 0.220539 0.220541
0.220485 0.220484 0.220539 0.22054 0.220483 0.220482 0.220532 0.220555 0.220493 0.22048
0.220526 0.22056 0.220499 0.220491 0.220551 0.220591 0.220516 0.220526 0.2206 0.22056
0.220503 0.220519 0.220594 0.220564 0.220502 0.220506 0.220574 0.220577 0.220508 0.220506
0.220575 0.220575 0.220506 0.220503 0.220564 0.220596 0.220519 0.220502 0.220558 0.220602
0.220526 0.220517 0.220591 0.220641 0.220548 0.220559 0.220651 0.2206 0.220531 0.220552
0.220644 0.220603 0.220529 0.220534 0.220617 0.220621 0.220536 0.220535 0.220619 0.220618
0.220535 0.22053 0.220604 0.220645 0.220553 0.22053 0.220598 0.220652 0.22056 0.220548
0.220641 0.220702 0.220588 0.220601 0.220711 0.220648 0.220565 0.220594 0.220704 0.22065
0.220562 0.22057 0.220669 0.220674 0.220572 0.220571 0.220672 0.22067 0.22057 0.220564
0.220651 0.220705 0.220594 0.220564 0.220645 0.220713 0.220601 0.220588 0.220702 0.220776
0.220636 0.220651 0.220783 0.220705 0.220608 0.220644 0.220776 0.220707 0.220603 0.220614
0.22073 0.220738 0.220616 0.220615 0.220736 0.220732 0.220614 0.220605 0.220708 0.220777
0.220645 0.220607 0.220703 0.220785 0.220652 0.220636 0.220775 0.220864 0.220695 0.220712
0.220868 0.220774 0.22066 0.220706 0.22086 0.220774 0.220653 0.220667 0.220803 0.220813
0.22067 0.220668 0.220811 0.220805 0.220668 0.220655 0.220775 0.220861 0.220706 0.220659
0.220772 0.22087 0.220713 0.220695 0.220863 0.220968 0.220766 0.220784 0.220965 0.220855
0.220723 0.220779 0.220959 0.220853 0.220713 0.220732 0.220889 0.220902 0.220734 0.220733
0.2209 0.220891 0.220733 0.220715 0.220855 0.220959 0.220779 0.220722 0.220852 0.220968
0.220785 0.220765 0.220967 0.221089 0.22085 0.22087 0.221077 0.220949 0.220797 0.220865
0.221071 0.220944 0.220785 0.220809 0.220988 0.221005 0.220811 0.22081 0.221002 0.22099
0.22081 0.220787 0.220946 0.221071 0.220866 0.220797 0.220946 0.221079 0.220871 0.220849
0.221087 0.221226 0.220948 0.220969 0.221202 0.221056 0.220885 0.220966 0.221198 0.221048
0.220869 0.220899 0.2211 0.221122 0.220901 0.2209 0.221119 0.221103 0.2209 0.220871
0.221051 0.221198 0.220967 0.220885 0.221053 0.221205 0.22097 0.220946 0.221224 0.221379
0.221059 0.221082 0.221338 0.221176 0.220987 0.221081 0.221337 0.221165 0.220966 0.221004
0.221226 0.221252 0.221005 0.221004 0.22125 0.221229 0.221005 0.220968 0.221168 0.221337
0.221082 0.220987 0.221173 0.221341 0.221082 0.221057 0.221377 0.221544 0.221184 0.221208
0.221482 0.221307 0.221101 0.22121 0.221485 0.221293 0.221077 0.221123 0.221363 0.221395
0.221123 0.221121 0.221393 0.221367 0.221124 0.221079 0.221297 0.221485 0.221211 0.221102
0.221304 0.221486 0.221209 0.221182 0.221542 0.221716 0.22132 0.221345 0.22163 0.221447
0.221229 0.221351 0.221639 0.221431 0.221201 0.221254 0.22151 0.221546 0.221253 0.221251
0.221544 0.221513 0.221255 0.221202 0.221435 0.221638 0.221351 0.22123 0.221444 0.221633
0.221346 0.221318 0.221714 0.221889 0.221465 0.221492 0.221776 0.221592 0.221368 0.2215
0.22179 0.221574 0.221335 0.221395 0.221661 0.221701 0.221392 0.22139 0.221698 0.221664
0.221397 0.221337 0.221578 0.221789 0.2215 0.221369 0.221588 0.221779 0.221492 0.221463
0.221887 0.222055 0.221614 0.221641 0.221913 0.221736 0.221515 0.221653 0.221934 0.221718
0.221477 0.221542 0.221811 0.221852 0.221537 0.221535 0.22185 0.221814 0.221544 0.22148
0.221722 0.221933 0.221653 0.221515 0.221731 0.221916 0.221642 0.221611 0.222053 
rho 1 840 float
0.91432 0.914331 0.914338 0.914333 0.914327 0.914332 0.914328 0.914324 0.91435 0.914358 0.914355
0.914354 0.914341 0.914339 0.914336 0.91433 0.914362 0.914362 0.914364 0.914352 0.914326
0.91433 0.914326 0.91432 0.914331 0.914337 0.914334 0.914323 0.9144 0.914421 0.914428
0.914413 0.914408 0.91442 0.914415 0.914404 0.91443 0.914445 0.914442 0.914432 0.914419
0.914428 0.914425 0.91441 0.914441 0.914449 0.914452 0.914432 0.914407 0.914417 0.914414
0.9144 0.914411 0.914427 0.914424 0.914403 0.914455 0.914483 0.91449 0.914467 0.91446
0.914482 0.914476 0.914457 0.914482 0.914505 0.914502 0.914484 0.914471 0.914488 0.914486
0.914462 0.914492 0.914509 0.914512 0.914484 0.91446 0.914478 0.914475 0.914453 0.914465
0.914489 0.914487 0.914457 0.914492 0.914527 0.914533 0.914504 0.914495 0.914525 0.914519
0.914493 0.914516 0.914547 0.914544 0.914519 0.914506 0.91453 0.914527 0.914496 0.914527
0.914551 0.914554 0.914518 0.914495 0.914521 0.914519 0.914488 0.914502 0.914533 0.914531
0.914494 0.914517 0.914559 0.914565 0.914529 0.914519 0.914556 0.91455 0.914517 0.91454
0.914577 0.914575 0.914544 0.914531 0.914559 0.914557 0.91452 0.914551 0.914581 0.914583
0.914541 0.914519 0.914551 0.91455 0.914513 0.914528 0.914564 0.914562 0.914519 0.914535
0.914582 0.914587 0.914547 0.914538 0.914579 0.914573 0.914535 0.914556 0.914599 0.914596
0.91456 0.914548 0.914581 0.914578 0.914537 0.914568 0.914603 0.914605 0.914557 0.914537
0.914574 0.914573 0.91453 0.914545 0.914587 0.914585 0.914537 0.914547 0.914599 0.914604
0.914559 0.914551 0.914596 0.91459 0.914547 0.914568 0.914615 0.914613 0.914572 0.91456
0.914599 0.914595 0.914549 0.91458 0.914619 0.914621 0.914569 0.91455 0.91459 0.91459
0.914543 0.914558 0.914604 0.914602 0.914549 0.914555 0.914611 0.914617 0.914567 0.91456
0.914609 0.914602 0.914557 0.914576 0.914628 0.914625 0.914581 0.914568 0.914613 0.91461
0.914558 0.914588 0.914631 0.914634 0.914577 0.914559 0.914603 0.914603 0.914553 0.914566
0.914617 0.914615 0.914557 0.91456 0.91462 0.914627 0.914573 0.914567 0.91462 0.914612
0.914563 0.914582 0.914639 0.914635 0.914587 0.914575 0.914623 0.914621 0.914565 0.914594
0.91464 0.914644 0.914583 0.914565 0.914612 0.914613 0.91456 0.914571 0.914627 0.914625
0.914562 0.914562 0.914627 0.914635 0.914577 0.914572 0.914629 0.91462 0.914568 0.914587
0.914649 0.914643 0.914591 0.91458 0.914632 0.91463 0.91457 0.914598 0.914648 0.914652
0.914586 0.914569 0.91462 0.914621 0.914565 0.914574 0.914635 0.914632 0.914564 0.914563
0.914633 0.914641 0.914578 0.914575 0.914637 0.914626 0.91457 0.91459 0.914657 0.91465
0.914594 0.914582 0.914639 0.914637 0.914573 0.914599 0.914654 0.914659 0.914588 0.914571
0.914626 0.914629 0.914568 0.914575 0.914641 0.914637 0.914565 0.914561 0.914636 0.914645
0.914576 0.914575 0.914643 0.914631 0.914569 0.914591 0.914663 0.914656 0.914595 0.914582
0.914645 0.914642 0.914573 0.914598 0.914658 0.914664 0.914588 0.914571 0.91463 0.914635
0.914569 0.914573 0.914645 0.91464 0.914563 0.914556 0.914637 0.914647 0.914571 0.914573
0.914646 0.914633 0.914566 0.914589 0.914666 0.91466 0.914593 0.914579 0.914648 0.914645
0.91457 0.914595 0.914662 0.914666 0.914585 0.914567 0.914632 0.914638 0.914567 0.914569
0.914647 0.914642 0.914558 0.914548 0.914635 0.914645 0.914562 0.914568 0.914646 0.914633
0.914559 0.914584 0.914668 0.914661 0.914587 0.914573 0.914649 0.914646 0.914564 0.914588
0.914662 0.914667 0.914579 0.91456 0.914631 0.914639 0.914563 0.914561 0.914647 0.914641
0.91455 0.914535 0.91463 0.91464 0.91455 0.91456 0.914643 0.914629 0.914548 0.914575