# vtk DataFile Version 2.0
airOutlet
ASCII
DATASET POLYDATA
POINTS 1085 float
0.0015 0.001 0.022 0.00155 0.001 0.022 0.00155 0.0015 0.022 0.0015 0.0015
0.022 0.00155 0.002 0.022 0.0015 0.002 0.022 0.00155 0.0025 0.022
0.0015 0.0025 0.022 0.00155 0.003 0.022 0.0015 0.003 0.022 0.0015
0.004 0.022 0.00155 0.004 0.022 0.00155 0.0045 0.022 0.0015 0.0045
0.022 0.00155 0.005 0.022 0.0015 0.005 0.022 0.00155 0.0055 0.022
0.0015 0.0055 0.022 0.00155 0.006 0.022 0.0015 0.006 0.022 0.0015
0.007 0.022 0.00155 0.007 0.022 0.00155 0.0075 0.022 0.0015 0.0075
0.022 0.00155 0.008 0.022 0.0015 0.008 0.022 0.00155 0.0085 0.022
0.0015 0.0085 0.022 0.00155 0.009 0.022 0.0015 0.009 0.022 0.0015
0.01 0.022 0.00155 0.01 0.022 0.00155 0.0105 0.022 0.0015 0.0105
0.022 0.00155 0.011 0.022 0.0015 0.011 0.022 0.00155 0.0115 0.022
0.0015 0.0115 0.022 0.00155 0.012 0.022 0.0015 0.012 0.022 0.0015
0.013 0.022 0.00155 0.013 0.022 0.00155 0.0135 0.022 0.0015 0.0135
0.022 0.00155 0.014 0.022 0.0015 0.014 0.022 0.00155 0.0145 0.022
0.0015 0.0145 0.022 0.00155 0.015 0.022 0.0015 0.015 0.022 0.0015
0.016 0.022 0.00155 0.016 0.022 0.00155 0.0165 0.022 0.0015 0.0165
0.022 0.00155 0.017 0.022 0.0015 0.017 0.022 0.00155 0.0175 0.022
0.0015 0.0175 0.022 0.00155 0.018 0.022 0.0015 0.018 0.022 0.0015
0.019 0.022 0.00155 0.019 0.022 0.00155 0.0195 0.022 0.0015 0.0195
0.022 0.00155 0.02 0.022 0.0015 0.02 0.022 0.00155 0.0205 0.022
0.0015 0.0205 0.022 0.00155 0.021 0.022 0.0015 0.021 0.022 0.0016
0.001 0.022 0.0016 0.0015 0.022 0.0016 0.002 0.022 0.0016 0.0025
0.022 0.0016 0.003 0.022 0.0016 0.004 0.022 0.0016 0.0045 0.022
0.0016 0.005 0.022 0.0016 0.0055 0.022 0.0016 0.006 0.022 0.0016
0.007 0.022 0.0016 0.0075 0.022 0.0016 0.008 0.022 0.0016 0.0085
0.022 0.0016 0.009 0.022 0.0016 0.01 0.022 0.0016 0.0105 0.022
0.0016 0.011 0.022 0.0016 0.0115 0.022 0.0016 0.012 0.022 0.0016
0.013 0.022 0.0016 0.0135 0.022 0.0016 0.014 0.022 0.0016 0.0145
0.022 0.0016 0.015 0.022 0.0016 0.016 0.022 0.0016 0.0165 0.022
0.0016 0.017 0.022 0.0016 0.0175 0.022 0.0016 0.018 0.022 0.0016
0.019 0.022 0.0016 0.0195 0.022 0.0016 0.02 0.022 0.0016 0.0205
0.022 0.0016 0.021 0.022 0.00165 0.001 0.022 0.00165 0.0015 0.022
0.00165 0.002 0.022 0.00165 0.0025 0.022 0.00165 0.003 0.022 0.00165
0.004 0.022 0.00165 0.0045 0.022 0.00165 0.005 0.022 0.00165 0.0055
0.022 0.00165 0.006 0.022 0.00165 0.007 0.022 0.00165 0.0075 0.022
0.00165 0.008 0.022 0.00165 0.0085 0.022 0.00165 0.009 0.022 0.00165
0.01 0.022 0.00165 0.0105 0.022 0.00165 0.011 0.022 0.00165 0.0115
0.022 0.00165 0.012 0.022 0.00165 0.013 0.022 0.00165 0.0135 0.022
0.00165 0.014 0.022 0.00165 0.0145 0.022 0.00165 0.015 0.022 0.00165
0.016 0.022 0.00165 0.0165 0.022 0.00165 0.017 0.022 0.00165 0.0175
0.022 0.00165 0.018 0.022 0.00165 0.019 0.022 0.00165 0.0195 0.022
0.00165 0.02 0.022 0.00165 0.0205 0.022 0.00165 0.021 0.022 0.0017
0.001 0.022 0.0017 0.0015 0.022 0.0017 0.002 0.022 0.0017 0.0025
0.022 0.0017 0.003 0.022 0.0017 0.004 0.022 0.0017 0.0045 0.022
0.0017 0.005 0.022 0.0017 0.0055 0.022 0.0017 0.006 0.022 0.0017
0.007 0.022 0.0017 0.0075 0.022 0.0017 0.008 0.022 0.0017 0.0085
0.022 0.0017 0.009 0.022 0.0017 0.01 0.022 0.0017 0.0105 0.022
0.0017 0.011 0.022 0.0017 0.0115 0.022 0.0017 0.012 0.022 0.0017
0.013 0.022 0.0017 0.0135 0.022 0.0017 0.014 0.022 0.0017 0.0145
0.022 0.0017 0.015 0.022 0.0017 0.016 0.022 0.0017 0.0165 0.022
0.0017 0.017 0.022 0.0017 0.0175 0.022 0.0017 0.018 0.022 0.0017
0.019 0.022 0.0017 0.0195 0.022 0.0017 0.02 0.022 0.0017 0.0205
0.022 0.0017 0.021 0.022 0.00175 0.001 0.022 0.00175 0.0015 0.022
0.00175 0.002 0.022 0.00175 0.0025 0.022 0.00175 0.003 0.022 0.00175
0.004 0.022 0.00175 0.0045 0.022 0.00175 0.005 0.022 0.00175 0.0055
0.022 0.00175 0.006 0.022 0.00175 0.007 0.022 0.00175 0.0075 0.022
0.00175 0.008 0.022 0.00175 0.0085 0.022 0.00175 0.009 0.022 0.00175
0.01 0.022 0.00175 0.0105 0.022 0.00175 0.011 0.022 0.00175 0.0115
0.022 0.00175 0.012 0.022 0.00175 0.013 0.022 0.00175 0.0135 0.022
0.00175 0.014 0.022 0.00175 0.0145 0.022 0.00175 0.015 0.022 0.00175
0.016 0.022 0.00175 0.0165 0.022 0.00175 0.017 0.022 0.00175 0.0175
0.022 0.00175 0.018 0.022 0.00175 0.019 0.022 0.00175 0.0195 0.022
0.00175 0.02 0.022 0.00175 0.0205 0.022 0.00175 0.021 0.022 0.0018
0.001 0.022 0.0018 0.0015 0.022 0.0018 0.002 0.022 0.0018 0.0025
0.022 0.0018 0.003 0.022 0.0018 0.004 0.022 0.0018 0.0045 0.022
0.0018 0.005 0.022 0.0018 0.0055 0.022 0.0018 0.006 0.022 0.0018
0.007 0.022 0.0018 0.0075 0.022 0.0018 0.008 0.022 0.0018 0.0085
0.022 0.0018 0.009 0.022 0.0018 0.01 0.022 0.0018 0.0105 0.022
0.0018 0.011 0.022 0.0018 0.0115 0.022 0.0018 0.012 0.022 0.0018
0.013 0.022 0.0018 0.0135 0.022 0.0018 0.014 0.022 0.0018 0.0145
0.022 0.0018 0.015 0.022 0.0018 0.016 0.022 0.0018 0.0165 0.022
0.0018 0.017 0.022 0.0018 0.0175 0.022 0.0018 0.018 0.022 0.0018
0.019 0.022 0.0018 0.0195 0.022 0.0018 0.02 0.022 0.0018 0.0205
0.022 0.0018 0.021 0.022 0.00185 0.001 0.022 0.00185 0.0015 0.022
0.00185 0.002 0.022 0.00185 0.0025 0.022 0.00185 0.003 0.022 0.00185
0.004 0.022 0.00185 0.0045 0.022 0.00185 0.005 0.022 0.00185 0.0055
0.022 0.00185 0.006 0.022 0.00185 0.007 0.022 0.00185 0.0075 0.022
0.00185 0.008 0.022 0.00185 0.0085 0.022 0.00185 0.009 0.022 0.00185
0.01 0.022 0.00185 0.0105 0.022 0.00185 0.011 0.022 0.00185 0.0115
0.022 0.00185 0.012 0.022 0.00185 0.013 0.022 0.00185 0.0135 0.022
0.00185 0.014 0.022 0.00185 0.0145 0.022 0.00185 0.015 0.022 0.00185
0.016 0.022 0.00185 0.0165 0.022 0.00185 0.017 0.022 0.00185 0.0175
0.022 0.00185 0.018 0.022 0.00185 0.019 0.022 0.00185 0.0195 0.022
0.00185 0.02 0.022 0.00185 0.0205 0.022 0.00185 0.021 0.022 0.0019
0.001 0.022 0.0019 0.0015 0.022 0.0019 0.002 0.022 0.0019 0.0025
0.022 0.0019 0.003 0.022 0.0019 0.004 0.022 0.0019 0.0045 0.022
0.0019 0.005 0.022 0.0019 0.0055 0.022 0.0019 0.006 0.022 0.0019
0.007 0.022 0.0019 0.0075 0.022 0.0019 0.008 0.022 0.0019 0.0085
0.022 0.0019 0.009 0.022 0.0019 0.01 0.022 0.0019 0.0105 0.022
0.0019 0.011 0.022 0.0019 0.0115 0.022 0.0019 0.012 0.022 0.0019
0.013 0.022 0.0019 0.0135 0.022 0.0019 0.014 0.022 0.0019 0.0145
0.022 0.0019 0.015 0.022 0.0019 0.016 0.022 0.0019 0.0165 0.022
0.0019 0.017 0.022 0.0019 0.0175 0.022 0.0019 0.018 0.022 0.0019
0.019 0.022 0.0019 0.0195 0.022 0.0019 0.02 0.022 0.0019 0.0205
0.022 0.0019 0.021 0.022 0.00195 0.001 0.022 0.00195 0.0015 0.022
0.00195 0.002 0.022 0.00195 0.0025 0.022 0.00195 0.003 0.022 0.00195
0.004 0.022 0.00195 0.0045 0.022 0.00195 0.005 0.022 0.00195 0.0055
0.022 0.00195 0.006 0.022 0.00195 0.007 0.022 0.00195 0.0075 0.022
0.00195 0.008 0.022 0.00195 0.0085 0.022 0.00195 0.009 0.022 0.00195
0.01 0.022 0.00195 0.0105 0.022 0.00195 0.011 0.022 0.00195 0.0115
0.022 0.00195 0.012 0.022 0.00195 0.013 0.022 0.00195 0.0135 0.022
0.00195 0.014 0.022 0.00195 0.0145 0.022 0.00195 0.015 0.022 0.00195
0.016 0.022 0.00195 0.0165 0.022 0.00195 0.017 0.022 0.00195 0.0175
0.022 0.00195 0.018 0.022 0.00195 0.019 0.022 0.00195 0.0195 0.022
0.00195 0.02 0.022 0.00195 0.0205 0.022 0.00195 0.021 0.022 0.002
0.001 0.022 0.002 0.0015 0.022 0.002 0.002 0.022 0.002 0.0025
0.022 0.002 0.003 0.022 0.002 0.004 0.022 0.002 0.0045 0.022
0.002 0.005 0.022 0.002 0.0055 0.022 0.002 0.006 0.022 0.002
0.007 0.022 0.002 0.0075 0.022 0.002 0.008 0.022 0.002 0.0085
0.022 0.002 0.009 0.022 0.002 0.01 0.022 0.002 0.0105 0.022
0.002 0.011 0.022 0.002 0.0115 0.022 0.002 0.012 0.022 0.002
0.013 0.022 0.002 0.0135 0.022 0.002 0.014 0.022 0.002 0.0145
0.022 0.002 0.015 0.022 0.002 0.016 0.022 0.002 0.0165 0.022
0.002 0.017 0.022 0.002 0.0175 0.022 0.002 0.018 0.022 0.002
0.019 0.022 0.002 0.0195 0.022 0.002 0.02 0.022 0.002 0.0205
0.022 0.002 0.021 0.022 0.00205 0.001 0.022 0.00205 0.0015 0.022
0.00205 0.002 0.022 0.00205 0.0025 0.022 0.00205 0.003 0.022 0.00205
0.004 0.022 0.00205 0.0045 0.022 0.00205 0.005 0.022 0.00205 0.0055
0.022 0.00205 0.006 0.022 0.00205 0.007 0.022 0.00205 0.0075 0.022
0.00205 0.008 0.022 0.00205 0.0085 0.022 0.00205 0.009 0.022 0.00205
0.01 0.022 0.00205 0.0105 0.022 0.00205 0.011 0.022 0.00205 0.0115
0.022 0.00205 0.012 0.022 0.00205 0.013 0.022 0.00205 0.0135 0.022
0.00205 0.014 0.022 0.00205 0.0145 0.022 0.00205 0.015 0.022 0.00205
0.016 0.022 0.00205 0.0165 0.022 0.00205 0.017 0.022 0.00205 0.0175
0.022 0.00205 0.018 0.022 0.00205 0.019 0.022 0.00205 0.0195 0.022
0.00205 0.02 0.022 0.00205 0.0205 0.022 0.00205 0.021 0.022 0.0021
0.001 0.022 0.0021 0.0015 0.022 0.0021 0.002 0.022 0.0021 0.0025
0.022 0.0021 0.003 0.022 0.0021 0.004 0.022 0.0021 0.0045 0.022
0.0021 0.005 0.022 0.0021 0.0055 0.022 0.0021 0.006 0.022 0.0021
0.007 0.022 0.0021 0.0075 0.022 0.0021 0.008 0.022 0.0021 0.0085
0.022 0.0021 0.009 0.022 0.0021 0.01 0.022 0.0021 0.0105 0.022
0.0021 0.011 0.022 0.0021 0.0115 0.022 0.0021 0.012 0.022 0.0021
0.013 0.022 0.0021 0.0135 0.022 0.0021 0.014 0.022 0.0021 0.0145
0.022 0.0021 0.015 0.022 0.0021 0.016 0.022 0.0021 0.0165 0.022
0.0021 0.017 0.022 0.0021 0.0175 0.022 0.0021 0.018 0.022 0.0021
0.019 0.022 0.0021 0.0195 0.022 0.0021 0.02 0.022 0.0021 0.0205
0.022 0.0021 0.021 0.022 0.00215 0.001 0.022 0.00215 0.0015 0.022
0.00215 0.002 0.022 0.00215 0.0025 0.022 0.00215 0.003 0.022 0.00215
0.004 0.022 0.00215 0.0045 0.022 0.00215 0.005 0.022 0.00215 0.0055
0.022 0.00215 0.006 0.022 0.00215 0.007 0.022 0.00215 0.0075 0.022
0.00215 0.008 0.022 0.00215 0.0085 0.022 0.00215 0.009 0.022 0.00215
0.01 0.022 0.00215 0.0105 0.022 0.00215 0.011 0.022 0.00215 0.0115
0.022 0.00215 0.012 0.022 0.00215 0.013 0.022 0.00215 0.0135 0.022
0.00215 0.014 0.022 0.00215 0.0145 0.022 0.00215 0.015 0.022 0.00215
0.016 0.022 0.00215 0.0165 0.022 0.00215 0.017 0.022 0.00215 0.0175
0.022 0.00215 0.018 0.022 0.00215 0.019 0.022 0.00215 0.0195 0.022
0.00215 0.02 0.022 0.00215 0.0205 0.022 0.00215 0.021 0.022 0.0022
0.001 0.022 0.0022 0.0015 0.022 0.0022 0.002 0.022 0.0022 0.0025
0.022 0.0022 0.003 0.022 0.0022 0.004 0.022 0.0022 0.0045 0.022
0.0022 0.005 0.022 0.0022 0.0055 0.022 0.0022 0.006 0.022 0.0022
[...]
CELL_DATA 840
FIELD attributes 16
patchID 1 840 float
1 1 1 1 1 1 1 1 1 1 1
1 1 1 1 1 1 1 1 1 1
1 1 1 1 1 1 1 1 1 1
1 1 1 1 1 1 1 1 1 1
1 1 1 1 1 1 1 1 1 1
1 1 1 1 1 1 1 1 1 1
1 1 1 1 1 1 1 1 1 1
1 1 1 1 1 1 1 1 1 1
1 1 1 1 1 1 1 1 1 1
1 1 1 1 1 1 1 1 1 1
1 1 1 1 1 1 1 1 1 1
1 1 1 1 1 1 1 1 1 1
1 1 1 1 1 1 1 1 1 1
1 1 1 1 1 1 1 1 1 1
1 1 1 1 1 1 1 1 1 1
1 1 1 1 1 1 1 1 1 1
1 1 1 1 1 1 1 1 1 1
1 1 1 1 1 1 1 1 1 1
1 1 1 1 1 1 1 1 1 1
1 1 1 1 1 1 1 1 1 1
1 1 1 1 1 1 1 1 1 1
1 1 1 1 1 1 1 1 1 1
1 1 1 1 1 1 1 1 1 1
1 1 1 1 1 1 1 1 1 1
1 1 1 1 1 1 1 1 1 1
1 1 1 1 1 1 1 1 1 1
1 1 1 1 1 1 1 1 1 1
1 1 1 1 1 1 1 1 1 1
1 1 1 1 1 1 1 1 1 1
1 1 1 1 1 1 1 1 1 1
1 1 1 1 1 1 1 1 1 1
1 1 1 1 1 1 1 1 1 1
1 1 1 1 1 1 1 1 1 1
1 1 1 1 1 1 1 1 1 1
1 1 1 1 1 1 1 1 1 1
1 1 1 1 1 1 1 1 1 1
1 1 1 1 1 1 1 1 1 1
1 1 1 1 1 1 1 1 1 1
1 1 1 1 1 1 1 1 1 1
1 1 1 1 1 1 1 1 1 1
1 1 1 1 1 1 1 1 1 1
1 1 1 1 1 1 1 1 1 1
1 1 1 1 1 1 1 1 1 1
1 1 1 1 1 1 1 1 1 1
1 1 1 1 1 1 1 1 1 1
1 1 1 1 1 1 1 1 1 1
1 1 1 1 1 1 1 1 1 1
1 1 1 1 1 1 1 1 1 1
1 1 1 1 1 1 1 1 1 1
1 1 1 1 1 1 1 1 1 1
1 1 1 1 1 1 1 1 1 1
1 1 1 1 1 1 1 1 1 1
1 1 1 1 1 1 1 1 1 1
1 1 1 1 1 1 1 1 1 1
1 1 1 1 1 1 1 1 1 1
1 1 1 1 1 1 1 1 1 1
1 1 1 1 1 1 1 1 1 1
1 1 1 1 1 1 1 1 1 1
1 1 1 1 1 1 1 1 1 1
1 1 1 1 1 1 1 1 1 1
1 1 1 1 1 1 1 1 1 1
1 1 1 1 1 1 1 1 1 1
1 1 1 1 1 1 1 1 1 1
1 1 1 1 1 1 1 1 1 1
1 1 1 1 1 1 1 1 1 1
1 1 1 1 1 1 1 1 1 1
1 1 1 1 1 1 1 1 1 1
1 1 1 1 1 1 1 1 1 1
1 1 1 1 1 1 1 1 1 1
1 1 1 1 1 1 1 1 1 1
1 1 1 1 1 1 1 1 1 1
1 1 1 1 1 1 1 1 1 1
1 1 1 1 1 1 1 1 1 1
1 1 1 1 1 1 1 1 1 1
1 1 1 1 1 1 1 1 1 1
1 1 1 1 1 1 1 1 1 1
1 1 1 1 1 1 1 1 1 1
1 1 1 1 1 1 1 1 1 1
1 1 1 1 1 1 1 1 1 1
1 1 1 1 1 1 1 1 1 1
1 1 1 1 1 1 1 1 1 1
1 1 1 1 1 1 1 1 1 1
1 1 1 1 1 1 1 1 1 1
1 1 1 1 1 1 1 1 1 
YH2Oair 1 840 float
0.150623 0.150539 0.150514 0.150559 0.150528 0.150472 0.150471 0.150524 0.150525 0.150471 0.15047
0.150524 0.150525 0.150471 0.150471 0.150525 0.150524 0.15047 0.150471 0.150525 0.150524
0.150471 0.150472 0.150528 0.150559 0.150514 0.150538 0.150622 0.150624 0.150539 0.150514
0.15056 0.150529 0.150472 0.150471 0.150525 0.150526 0.150471 0.15047 0.150525 0.150526
0.15047 0.15047 0.150526 0.150525 0.15047 0.150471 0.150526 0.150525 0.150471 0.150472
0.150529 0.15056 0.150514 0.150538 0.150624 0.150628 0.15054 0.150515 0.150563 0.150531
0.150473 0.150471 0.150528 0.150529 0.150471 0.150471 0.150528 0.150529 0.150471 0.150471
0.150528 0.150528 0.150471 0.150471 0.150529 0.150528 0.150471 0.150473 0.150531 0.150562
0.150514 0.150539 0.150627 0.150634 0.150542 0.150517 0.150567 0.150536 0.150475 0.150473
0.150532 0.150534 0.150473 0.150473 0.150532 0.150533 0.150473 0.150473 0.150533 0.150532
0.150473 0.150473 0.150534 0.150532 0.150473 0.150475 0.150536 0.150567 0.150516 0.150542
0.150634 0.150644 0.150547 0.15052 0.150574 0.150543 0.150478 0.150477 0.150539 0.150541
0.150477 0.150476 0.15054 0.15054 0.150477 0.150477 0.15054 0.15054 0.150477 0.150477
0.150541 0.150539 0.150477 0.150478 0.150543 0.150574 0.15052 0.150546 0.150643 0.150657
0.150554 0.150527 0.150584 0.150553 0.150484 0.150483 0.150549 0.150551 0.150483 0.150482
0.15055 0.15055 0.150483 0.150483 0.15055 0.15055 0.150482 0.150483 0.150551 0.150549
0.150483 0.150484 0.150553 0.150584 0.150526 0.150554 0.150657 0.150675 0.150565 0.150536
0.150598 0.150566 0.150493 0.150491 0.150562 0.150564 0.150491 0.150491 0.150563 0.150563
0.150491 0.150491 0.150563 0.150563 0.150491 0.150491 0.150564 0.150562 0.150491 0.150493
0.150566 0.150598 0.150535 0.150565 0.150675 0.150697 0.150579 0.150548 0.150615 0.150583
0.150504 0.150503 0.150579 0.15058 0.150503 0.150502 0.150579 0.15058 0.150503 0.150503
0.15058 0.150579 0.150502 0.150503 0.15058 0.150579 0.150503 0.150504 0.150583 0.150615
0.150548 0.150579 0.150697 0.150725 0.150597 0.150564 0.150635 0.150604 0.150519 0.150517
0.150599 0.150601 0.150517 0.150517 0.150599 0.1506 0.150517 0.150517 0.1506 0.150599
0.150517 0.150517 0.150601 0.150599 0.150517 0.150519 0.150604 0.150635 0.150564 0.150597
0.150724 0.150757 0.15062 0.150583 0.15066 0.150628 0.150538 0.150535 0.150623 0.150625
0.150536 0.150535 0.150623 0.150624 0.150535 0.150535 0.150624 0.150623 0.150535 0.150536
0.150625 0.150623 0.150535 0.150538 0.150628 0.15066 0.150583 0.15062 0.150757 0.150795
0.150647 0.150607 0.150689 0.150656 0.15056 0.150557 0.15065 0.150653 0.150557 0.150557
0.150651 0.150652 0.150557 0.150557 0.150652 0.150651 0.150557 0.150557 0.150653 0.15065
0.150557 0.15056 0.150656 0.150689 0.150607 0.150646 0.150795 0.150839 0.150678 0.150635
0.150722 0.150689 0.150586 0.150583 0.150682 0.150685 0.150583 0.150582 0.150683 0.150684
0.150582 0.150582 0.150684 0.150683 0.150582 0.150583 0.150685 0.150682 0.150583 0.150585
0.150689 0.150722 0.150634 0.150678 0.150839 0.150889 0.150715 0.150667 0.150759 0.150726
0.150615 0.150612 0.150719 0.150721 0.150612 0.150612 0.150719 0.15072 0.150612 0.150612
0.15072 0.150719 0.150612 0.150612 0.150721 0.150719 0.150612 0.150615 0.150726 0.150759
0.150666 0.150715 0.150889 0.150945 0.150756 0.150703 0.150801 0.150767 0.150649 0.150645
0.150759 0.150762 0.150646 0.150645 0.15076 0.150761 0.150645 0.150645 0.150761 0.15076
0.150645 0.150646 0.150762 0.150759 0.150645 0.150649 0.150767 0.150801 0.150703 0.150756
0.150945 0.151008 0.150803 0.150744 0.150848 0.150813 0.150687 0.150683 0.150804 0.150807
0.150684 0.150682 0.150805 0.150806 0.150683 0.150683 0.150806 0.150805 0.150683 0.150684
0.150807 0.150804 0.150683 0.150687 0.150813 0.150848 0.150744 0.150803 0.151008 0.151078
0.150856 0.150789 0.150899 0.150864 0.15073 0.150725 0.150854 0.150857 0.150725 0.150724
0.150855 0.150856 0.150725 0.150725 0.150856 0.150855 0.150724 0.150725 0.150857 0.150854
0.150725 0.15073 0.150864 0.150899 0.150789 0.150855 0.151077 0.151155 0.150914 0.15084
0.150955 0.150919 0.150776 0.150771 0.150908 0.150912 0.150772 0.150771 0.150909 0.15091
0.150771 0.150771 0.15091 0.150909 0.150771 0.150772 0.150912 0.150908 0.150771 0.150776
0.150919 0.150955 0.150839 0.150913 0.151154 0.151239 0.150977 0.150895 0.151016 0.150979
0.150827 0.150822 0.150967 0.150971 0.150822 0.150821 0.150969 0.15097 0.150821 0.150821
0.15097 0.150969 0.150821 0.150822 0.150971 0.150967 0.150822 0.150827 0.150979 0.151016
0.150894 0.150976 0.151239 0.151331 0.151046 0.150954 0.151082 0.151044 0.150883 0.150876
0.151031 0.151035 0.150877 0.150875 0.151032 0.151034 0.150876 0.150876 0.151033 0.151032
0.150875 0.150877 0.151035 0.151031 0.150876 0.150882 0.151044 0.151081 0.150954 0.151045
0.151331 0.151432 0.15112 0.151019 0.151152 0.151114 0.150942 0.150935 0.1511 0.151104
0.150936 0.150934 0.151101 0.151102 0.150935 0.150935 0.151102 0.151101 0.150934 0.150936
0.151104 0.1511 0.150935 0.150942 0.151114 0.151152 0.151018 0.15112 0.151431 0.15154
0.151201 0.151087 0.151227 0.151189 0.151006 0.150998 0.151173 0.151177 0.150999 0.150997
0.151174 0.151175 0.150998 0.150998 0.151175 0.151174 0.150997 0.150999 0.151177 0.151173
0.150998 0.151006 0.151188 0.151227 0.151087 0.1512 0.151539 0.151657 0.151286 0.15116
0.151307 0.151268 0.151073 0.151065 0.151251 0.151256 0.151065 0.151064 0.151252 0.151254
0.151064 0.151064 0.151253 0.151252 0.151064 0.151065 0.151255 0.151251 0.151065 0.151073
0.151268 0.151306 0.151159 0.151285 0.151656 0.151782 0.151376 0.151236 0.151391 0.151352
0.151144 0.151135 0.151333 0.151338 0.151136 0.151134 0.151335 0.151336 0.151135 0.151134
0.151336 0.151335 0.151134 0.151136 0.151338 0.151333 0.151135 0.151144 0.151352 0.15139
0.151236 0.151375 0.151781 0.151916 0.151471 0.151316 0.151479 0.15144 0.151218 0.151209
0.15142 0.151425 0.151209 0.151208 0.151422 0.151423 0.151208 0.151208 0.151423 0.151422
0.151208 0.151209 0.151425 0.15142 0.151209 0.151218 0.15144 0.151479 0.151316 0.15147
0.151914 0.152057 0.151569 0.151399 0.151572 0.151533 0.151295 0.151285 0.151511 0.151516
0.151285 0.151284 0.151513 0.151514 0.151284 0.151284 0.151514 0.151513 0.151284 0.151285
0.151516 0.151511 0.151285 0.151295 0.151533 0.151571 0.151399 0.151568 0.152056 0.152207
0.151671 0.151484 0.151668 0.151629 0.151374 0.151363 0.151606 0.151611 0.151363 0.151362
0.151608 0.151609 0.151362 0.151362 0.151609 0.151608 0.151362 0.151363 0.151611 0.151606
0.151363 0.151374 0.151629 0.151667 0.151484 0.15167 0.152206 0.152364 0.151775 0.15157
0.151767 0.151729 0.151454 0.151443 0.151704 0.15171 0.151443 0.151441 0.151706 0.151707
0.151441 0.151441 0.151707 0.151706 0.151441 0.151443 0.151709 0.151704 0.151443 0.151454
0.151729 0.151766 0.15157 0.151774 0.152362 0.152527 0.15188 0.151657 0.151869 0.151832
0.151535 0.151523 0.151805 0.15181 0.151523 0.151521 0.151807 0.151808 0.151521 0.151521
0.151808 0.151807 0.151521 0.151523 0.15181 0.151805 0.151523 0.151535 0.151831 0.151868
0.151656 0.151879 0.152525 0.152695 0.151985 0.151743 0.151972 0.151936 0.151616 0.151603
0.151908 0.151913 0.151603 0.151601 0.15191 0.151911 0.151601 0.151601 0.151911 0.15191
0.151601 0.151603 0.151913 0.151908 0.151603 0.151615 0.151936 0.151972 0.151743 0.151984
0.152693 0.152866 0.152088 0.151828 0.152076 0.152041 0.151695 0.151682 0.152012 0.152017
0.151681 0.15168 0.152014 0.152015 0.15168 0.15168 0.152014 0.152014 0.15168 0.151681
0.152017 0.152012 0.151682 0.151695 0.152041 0.152076 0.151827 0.152087 0.152864 
XH2Oair 1 840 float
0.221246 0.221134 0.221102 0.221161 0.221119 0.221046 0.221044 0.221115 0.221116 0.221044 0.221043
0.221115 0.221116 0.221044 0.221044 0.221116 0.221115 0.221043 0.221044 0.221116 0.221115
0.221044 0.221045 0.221119 0.221161 0.221102 0.221134 0.221245 0.221248 0.221134 0.221102
0.221163 0.22112 0.221045 0.221044 0.221116 0.221118 0.221044 0.221043 0.221116 0.221117
0.221043 0.221043 0.221117 0.221116 0.221043 0.221044 0.221118 0.221116 0.221044 0.221045
0.22112 0.221162 0.221101 0.221134 0.221247 0.221252 0.221135 0.221102 0.221166 0.221124
0.221046 0.221044 0.221119 0.221121 0.221045 0.221044 0.22112 0.22112 0.221044 0.221044
0.22112 0.22112 0.221044 0.221045 0.221121 0.221119 0.221044 0.221046 0.221124 0.221166
0.221102 0.221135 0.221252 0.221261 0.221139 0.221105 0.221172 0.22113 0.221049 0.221047
0.221125 0.221127 0.221047 0.221047 0.221126 0.221126 0.221047 0.221047 0.221126 0.221126
0.221047 0.221047 0.221127 0.221125 0.221047 0.221049 0.22113 0.221172 0.221105 0.221139
0.221261 0.221274 0.221145 0.22111 0.221181 0.22114 0.221054 0.221052 0.221135 0.221137
0.221052 0.221051 0.221135 0.221136 0.221052 0.221052 0.221136 0.221135 0.221051 0.221052
0.221137 0.221135 0.221052 0.221054 0.22114 0.221181 0.22111 0.221145 0.221273 0.221292
0.221155 0.221118 0.221195 0.221153 0.221062 0.22106 0.221148 0.22115 0.22106 0.221059
0.221148 0.221149 0.22106 0.22106 0.221149 0.221148 0.221059 0.22106 0.22115 0.221148
0.22106 0.221062 0.221153 0.221195 0.221118 0.221154 0.221291 0.221315 0.221169 0.22113
0.221213 0.221171 0.221073 0.221071 0.221165 0.221167 0.221071 0.22107 0.221166 0.221166
0.221071 0.221071 0.221166 0.221166 0.22107 0.221071 0.221167 0.221165 0.221071 0.221073
0.221171 0.221212 0.22113 0.221169 0.221315 0.221345 0.221188 0.221147 0.221235 0.221193
0.221089 0.221086 0.221187 0.221189 0.221086 0.221086 0.221187 0.221188 0.221086 0.221086
0.221188 0.221187 0.221086 0.221086 0.221189 0.221187 0.221086 0.221089 0.221193 0.221235
0.221146 0.221188 0.221345 0.221381 0.221212 0.221168 0.221262 0.22122 0.221108 0.221106
0.221213 0.221216 0.221106 0.221105 0.221214 0.221215 0.221105 0.221105 0.221215 0.221214
0.221105 0.221106 0.221216 0.221213 0.221106 0.221108 0.22122 0.221262 0.221167 0.221212
0.221381 0.221424 0.221242 0.221194 0.221295 0.221252 0.221133 0.22113 0.221245 0.221248
0.22113 0.221129 0.221246 0.221247 0.221129 0.221129 0.221247 0.221246 0.221129 0.22113
0.221248 0.221245 0.22113 0.221133 0.221252 0.221295 0.221193 0.221242 0.221424 0.221475
0.221278 0.221225 0.221333 0.22129 0.221162 0.221158 0.221282 0.221285 0.221159 0.221158
0.221283 0.221284 0.221158 0.221158 0.221284 0.221283 0.221158 0.221159 0.221285 0.221282
0.221158 0.221162 0.22129 0.221333 0.221224 0.221277 0.221474 0.221533 0.22132 0.221261
0.221377 0.221333 0.221196 0.221192 0.221324 0.221327 0.221192 0.221191 0.221325 0.221326
0.221192 0.221192 0.221326 0.221325 0.221191 0.221192 0.221327 0.221324 0.221192 0.221196
0.221333 0.221377 0.221261 0.221319 0.221532 0.221599 0.221368 0.221304 0.221427 0.221382
0.221235 0.221231 0.221372 0.221376 0.221232 0.22123 0.221373 0.221374 0.221231 0.221231
0.221374 0.221373 0.221231 0.221232 0.221376 0.221372 0.221231 0.221235 0.221382 0.221427
0.221303 0.221368 0.221598 0.221673 0.221423 0.221352 0.221483 0.221437 0.22128 0.221275
0.221426 0.22143 0.221276 0.221275 0.221427 0.221428 0.221275 0.221275 0.221428 0.221427
0.221275 0.221276 0.22143 0.221426 0.221275 0.22128 0.221437 0.221482 0.221352 0.221423
0.221673 0.221757 0.221485 0.221406 0.221544 0.221498 0.221331 0.221325 0.221486 0.22149
0.221326 0.221325 0.221487 0.221488 0.221325 0.221325 0.221488 0.221487 0.221325 0.221326
0.22149 0.221486 0.221325 0.221331 0.221498 0.221544 0.221406 0.221485 0.221756 0.221849
0.221555 0.221467 0.221612 0.221565 0.221387 0.221381 0.221552 0.221556 0.221382 0.22138
0.221553 0.221554 0.221381 0.22138 0.221554 0.221553 0.22138 0.221382 0.221556 0.221552
0.221381 0.221387 0.221565 0.221612 0.221466 0.221554 0.221848 0.221951 0.221631 0.221533
0.221686 0.221638 0.221449 0.221442 0.221624 0.221628 0.221443 0.221441 0.221625 0.221626
0.221442 0.221442 0.221626 0.221625 0.221441 0.221443 0.221628 0.221624 0.221442 0.221449
0.221638 0.221686 0.221533 0.221631 0.22195 0.222063 0.221715 0.221606 0.221767 0.221718
0.221516 0.221509 0.221702 0.221707 0.22151 0.221508 0.221703 0.221705 0.221508 0.221508
0.221705 0.221703 0.221508 0.22151 0.221707 0.221702 0.221509 0.221516 0.221717 0.221766
0.221606 0.221715 0.222062 0.222185 0.221807 0.221685 0.221853 0.221804 0.22159 0.221582
0.221786 0.221791 0.221582 0.22158 0.221788 0.221789 0.221581 0.221581 0.221789 0.221788
0.22158 0.221582 0.221791 0.221786 0.221581 0.22159 0.221803 0.221853 0.221685 0.221806
0.222184 0.222317 0.221905 0.22177 0.221947 0.221896 0.221668 0.221659 0.221877 0.221883
0.22166 0.221658 0.221879 0.22188 0.221659 0.221659 0.22188 0.221879 0.221658 0.22166
0.221882 0.221877 0.221659 0.221668 0.221896 0.221946 0.22177 0.221905 0.222316 0.22246
0.222011 0.221861 0.222046 0.221995 0.221753 0.221743 0.221974 0.22198 0.221743 0.221741
0.221976 0.221977 0.221742 0.221742 0.221977 0.221976 0.221741 0.221743 0.22198 0.221974
0.221743 0.221753 0.221995 0.222045 0.22186 0.222011 0.222459 0.222615 0.222124 0.221957
0.222151 0.2221 0.221842 0.221831 0.222077 0.222083 0.221832 0.22183 0.222079 0.222081
0.22183 0.22183 0.22208 0.222079 0.22183 0.221832 0.222083 0.222077 0.221831 0.221842
0.222099 0.222151 0.221957 0.222123 0.222613 0.22278 0.222244 0.222059 0.222263 0.222211
0.221936 0.221924 0.222186 0.222192 0.221925 0.221923 0.222188 0.22219 0.221923 0.221923
0.22219 0.222189 0.221923 0.221925 0.222192 0.222186 0.221924 0.221936 0.222211 0.222262
0.222058 0.222243 0.222779 0.222957 0.222369 0.222164 0.22238 0.222328 0.222034 0.222022
0.222301 0.222308 0.222022 0.22202 0.222303 0.222305 0.22202 0.22202 0.222305 0.222304
0.22202 0.222022 0.222308 0.222301 0.222022 0.222034 0.222328 0.222379 0.222164 0.222368
0.222955 0.223144 0.222499 0.222274 0.222502 0.22245 0.222136 0.222123 0.222422 0.222428
0.222123 0.22212 0.222424 0.222425 0.222121 0.222121 0.222425 0.222424 0.22212 0.222123
0.222428 0.222422 0.222123 0.222136 0.22245 0.222501 0.222273 0.222498 0.223143 0.223342
0.222634 0.222386 0.222629 0.222578 0.22224 0.222226 0.222547 0.222554 0.222226 0.222224
0.222549 0.222551 0.222224 0.222224 0.222551 0.22255 0.222224 0.222226 0.222554 0.222547
0.222226 0.22224 0.222577 0.222628 0.222386 0.222632 0.22334 0.223549 0.222771 0.222501
0.22276 0.22271 0.222346 0.222331 0.222677 0.222684 0.222331 0.222329 0.222679 0.222681
0.222329 0.222329 0.22268 0.222679 0.222329 0.222331 0.222684 0.222677 0.222331 0.222346
0.222709 0.22276 0.2225 0.22277 0.223547 0.223764 0.22291 0.222615 0.222895 0.222845
0.222453 0.222438 0.22281 0.222817 0.222437 0.222435 0.222813 0.222814 0.222435 0.222435
0.222814 0.222813 0.222435 0.222437 0.222817 0.22281 0.222438 0.222453 0.222845 0.222894
0.222614 0.222909 0.223762 0.223986 0.223049 0.222729 0.223031 0.222983 0.22256 0.222543
0.222946 0.222953 0.222543 0.22254 0.222949 0.22295 0.222541 0.222541 0.22295 0.222949
0.22254 0.222543 0.222953 0.222946 0.222543 0.222559 0.222983 0.223031 0.222728 0.223047
0.223984 0.224212 0.223185 0.222841 0.223169 0.223123 0.222665 0.222647 0.223083 0.22309
0.222647 0.222644 0.223086 0.223087 0.222644 0.222644 0.223087 0.223086 0.222644 0.222647
0.22309 0.223083 0.222647 0.222664 0.223122 0.223169 0.22284 0.223183 0.22421 
rho 1 840 float
0.912967 0.913019 0.913032 0.913003 0.913021 0.913056 0.913057 0.913023 0.913022 0.913057 0.913057
0.913023 0.913022 0.913057 0.913057 0.913022 0.913023 0.913057 0.913057 0.913022 0.913023
0.913057 0.913056 0.913021 0.913003 0.913033 0.913019 0.912967 0.912968 0.913024 0.913038
0.913005 0.913022 0.913062 0.913063 0.913024 0.913023 0.913063 0.913063 0.913024 0.913024
0.913063 0.913063 0.913024 0.913024 0.913063 0.913063 0.913023 0.913024 0.913063 0.913062
0.913022 0.913005 0.913038 0.913025 0.912969 0.912968 0.91303 0.913044 0.913005 0.913022
0.913068 0.913068 0.913025 0.913024 0.913068 0.913069 0.913025 0.913024 0.913069 0.913069
0.913024 0.913025 0.913069 0.913068 0.913024 0.913025 0.913068 0.913068 0.913023 0.913005
0.913044 0.91303 0.912968 0.912966 0.913034 0.913049 0.913004 0.913022 0.913072 0.913073
0.913024 0.913023 0.913073 0.913074 0.913024 0.913024 0.913074 0.913074 0.913024 0.913024
0.913074 0.913073 0.913023 0.913024 0.913073 0.913072 0.913022 0.913004 0.913049 0.913034
0.912967 0.912963 0.913037 0.913052 0.913002 0.913019 0.913076 0.913077 0.913022 0.913021
0.913077 0.913077 0.913022 0.913021 0.913077 0.913077 0.913021 0.913022 0.913077 0.913077
0.913021 0.913022 0.913077 0.913076 0.913019 0.913002 0.913052 0.913037 0.912963 0.912956
0.913038 0.913053 0.912998 0.913015 0.913077 0.913078 0.913017 0.913016 0.913079 0.913079
0.913017 0.913017 0.913079 0.913079 0.913017 0.913017 0.913079 0.913079 0.913017 0.913017
0.913078 0.913077 0.913015 0.912998 0.913053 0.913038 0.912956 0.912947 0.913036 0.913052
0.912991 0.913008 0.913077 0.913078 0.913011 0.91301 0.913078 0.913079 0.913011 0.913011
0.913079 0.913079 0.913011 0.913011 0.913079 0.913078 0.91301 0.913011 0.913078 0.913077
0.913009 0.912991 0.913053 0.913036 0.912947 0.912935 0.913032 0.913049 0.912982 0.913
0.913074 0.913076 0.913003 0.913002 0.913076 0.913076 0.913003 0.913002 0.913076 0.913076
0.913002 0.913003 0.913076 0.913076 0.913002 0.913003 0.913076 0.913074 0.913 0.912982
0.91305 0.913032 0.912936 0.91292 0.913024 0.913043 0.912971 0.912989 0.913069 0.91307
0.912992 0.912991 0.913071 0.913071 0.912992 0.912991 0.913071 0.913071 0.912992 0.912992
0.913071 0.913071 0.912991 0.912992 0.91307 0.913069 0.912989 0.912971 0.913044 0.913024
0.91292 0.912902 0.913014 0.913035 0.912957 0.912975 0.913061 0.913063 0.912978 0.912977
0.913063 0.913063 0.912978 0.912978 0.913063 0.913063 0.912978 0.912978 0.913063 0.913063
0.912977 0.912978 0.913063 0.913061 0.912975 0.912957 0.913035 0.913014 0.912902 0.912879
0.913 0.913023 0.91294 0.912958 0.91305 0.913051 0.912962 0.912961 0.913052 0.913052
0.912962 0.912962 0.913052 0.913052 0.912962 0.912962 0.913052 0.913052 0.912961 0.912962
0.913051 0.91305 0.912958 0.91294 0.913023 0.913 0.91288 0.912853 0.912982 0.913007
0.91292 0.912939 0.913035 0.913037 0.912943 0.912942 0.913038 0.913038 0.912943 0.912942
0.913038 0.913038 0.912942 0.912943 0.913038 0.913038 0.912942 0.912943 0.913037 0.913035
0.912939 0.91292 0.913007 0.912982 0.912853 0.912823 0.91296 0.912988 0.912898 0.912916
0.913018 0.91302 0.912921 0.912919 0.91302 0.913021 0.912921 0.91292 0.913021 0.913021
0.91292 0.912921 0.913021 0.91302 0.912919 0.912921 0.91302 0.913018 0.912916 0.912898