/*--------------------------------*- C++ -*----------------------------------*\
| =========                 |                                                 |
| \\      /  F ield         | OpenFOAM: The Open Source CFD Toolbox           |
|  \\    /   O peration     | Version:  4.0                                   |
|   \\  /    A nd           | Web:      www.OpenFOAM.org                      |
|    \\/     M anipulation  |                                                 |
\*---------------------------------------------------------------------------*/
FoamFile
{
    version     2.0;
    format      ascii;
    class       volScalarField;
    location    "60/electrolyte";
    object      electrochemicalHeating;
}
// * * * * * * * * * * * * * * * * * * * * * * * * * * * * * * * * * * * * * //

dimensions      [0 0 0 0 0 0 0];

internalField   nonuniform List<scalar> 
4840
(
91193.34
91193.34
91193.34
91193.34
91193.34
90943.2
90943.2
90943.2
90943.2
90943.2
90589.01
90589.01
90589.01
90589.01
90589.01
90486.41
90486.41
90486.41
90486.41
90486.41
90663.79
90663.79
90663.79
90663.79
90663.79
90774.1
90774.1
90774.1
90774.1
90774.1
91201.45
91201.45
91201.45
91201.45
91201.45
91229.08
91229.08
91229.08
91229.08
91229.08
90872.82
90872.82
90872.82
90872.82
90872.82
91326.49
91326.49
91326.49
91326.49
91326.49
91358.47
91358.47
91358.47
91358.47
91358.47
91130.69
91130.69
91130.69
91130.69
91130.69
91466.27
91466.27
91466.27
91466.27
91466.27
91409.76
91409.76
91409.76
91409.76
91409.76
91040.91
91040.91
91040.91
91040.91
91040.91
91460.08
91460.08
91460.08
91460.08
91460.08
91420.3
91420.3
91420.3
91420.3
91420.3
91119.26
91119.26
91119.26
91119.26
91119.26
91469.8
91469.8
91469.8
91469.8
91469.8
91433.11
91433.11
91433.11
91433.11
91433.11
91068.58
91068.58
91068.58
91068.58
91068.58
91427.79
91427.79
91427.79
91427.79
91427.79
91427.45
91427.45
91427.45
91427.45
91427.45
91068.08
91068.08
91068.08
91068.08
91068.08
91428.59
91428.59
91428.59
91428.59
91428.59
91471.59
91471.59
91471.59
91471.59
91471.59
91121.14
91121.14
91121.14
91121.14
91121.14
91422.22
91422.22
91422.22
91422.22
91422.22
91460.83
91460.83
91460.83
91460.83
91460.83
91039.2
91039.2
91039.2
91039.2
91039.2
91409.81
91409.81
91409.81
91409.81
91409.81
91462.57
91462.57
91462.57
91462.57
91462.57
91126.86
91126.86
91126.86
91126.86
91126.86
91355.54
91355.54
91355.54
91355.54
91355.54
91324.97
91324.97
91324.97
91324.97
91324.97
90871.98
90871.98
90871.98
90871.98
90871.98
91229.52
91229.52
91229.52
91229.52
91229.52
91202.47
91202.47
91202.47
91202.47
91202.47
90774.7
90774.7
90774.7
90774.7
90774.7
90664.4
90664.4
90664.4
90664.4
90664.4
90479.9
90479.9
90479.9
90479.9
90479.9
90585.3
90585.3
90585.3
90585.3
90585.3
90938.47
90938.47
90938.47
90938.47
90938.47
91187
91187
91187
91187
91187
91594.35
91594.35
91594.35
91594.35
91594.35
92451.02
92451.02
92451.02
92451.02
92451.02
93259.4
93259.4
93259.4
93259.4
93259.4
93442.79
93442.79
93442.79
93442.79
93442.79
93280.21
93280.21
93280.21
93280.21
93280.21
93340.98
93340.98
93340.98
93340.98
93340.98
92194.76
92194.76
92194.76
92194.76
92194.76
92630.68
92630.68
92630.68
92630.68
92630.68
93650.58
93650.58
93650.58
93650.58
93650.58
93828.77
93828.77
93828.77
93828.77
93828.77
93856.32
93856.32
93856.32
93856.32
93856.32
93736.7
93736.7
93736.7
93736.7
93736.7
92618.53
92618.53
92618.53
92618.53
92618.53
92647.08
92647.08
92647.08
92647.08
92647.08
93724.19
93724.19
93724.19
93724.19
93724.19
93884.81
93884.81
93884.81
93884.81
93884.81
93888.72
93888.72
93888.72
93888.72
93888.72
93758.73
93758.73
93758.73
93758.73
93758.73
92667.79
92667.79
92667.79
92667.79
92667.79
92637.25
92637.25
92637.25
92637.25
92637.25
93728.46
93728.46
93728.46
93728.46
93728.46
93892.75
93892.75
93892.75
93892.75
93892.75
93891.64
93891.64
93891.64
93891.64
93891.64
93728.47
93728.47
93728.47
93728.47
93728.47
92637.58
92637.58
92637.58
92637.58
92637.58
92669.4
92669.4
92669.4
92669.4
92669.4
93755.99
93755.99
93755.99
93755.99
93755.99
93886.96
93886.96
93886.96
93886.96
93886.96
93885.75
93885.75
93885.75
93885.75
93885.75
93723.52
93723.52
93723.52
93723.52
93723.52
92645.91
92645.91
92645.91
92645.91
92645.91
92610.33
92610.33
92610.33
92610.33
92610.33
93727.13
93727.13
93727.13
93727.13
93727.13
93850.5
93850.5
93850.5
93850.5
93850.5
93826.22
93826.22
93826.22
93826.22
93826.22
93648.7
93648.7
93648.7
93648.7
93648.7
92627.7
92627.7
92627.7
92627.7
92627.7
92195.36
92195.36
92195.36
92195.36
92195.36
93340.01
93340.01
93340.01
93340.01
93340.01
93277.83
93277.83
93277.83
93277.83
93277.83
93438.89
93438.89
93438.89
93438.89
93438.89
93260.3
93260.3
93260.3
93260.3
93260.3
92451.81
92451.81
92451.81
92451.81
92451.81
91590.95
91590.95
91590.95
91590.95
91590.95
92001.54
92001.54
92001.54
92001.54
92001.54
92774.75
92774.75
92774.75
92774.75
92774.75
93515.8
93515.8
93515.8
93515.8
93515.8
93270.79
93270.79
93270.79
93270.79
93270.79
92819.98
92819.98
92819.98
92819.98
92819.98
93049.48
93049.48
93049.48
93049.48
93049.48
92191.97
92191.97
92191.97
92191.97
92191.97
92628.19
92628.19
92628.19
92628.19
92628.19
93456.86
93456.86
93456.86
93456.86
93456.86
93314.04
93314.04
93314.04
93314.04
93314.04
93263.79
93263.79
93263.79
93263.79
93263.79
93456.93
93456.93
93456.93
93456.93
93456.93
92535.99
92535.99
92535.99
92535.99
92535.99
92535.69
92535.69
92535.69
92535.69
92535.69
93441.18
93441.18
93441.18
93441.18
93441.18
93308.67
93308.67
93308.67
93308.67
93308.67
93285.94
93285.94
93285.94
93285.94
93285.94
93473.31
93473.31
93473.31
93473.31
93473.31
92564.11
92564.11
92564.11
92564.11
92564.11
92529.94
92529.94
92529.94
92529.94
92529.94
93438.48
93438.48
93438.48
93438.48
93438.48
93292.52
93292.52
93292.52
93292.52
93292.52
93292.07
93292.07
93292.07
93292.07
93292.07
93438.31
93438.31
93438.31
93438.31
93438.31
92529.81
92529.81
92529.81
92529.81
92529.81
92564.49
92564.49
92564.49
92564.49
92564.49
93474.72
93474.72
93474.72
93474.72
93474.72
93287.72
93287.72
93287.72
93287.72
93287.72
93309
93309
93309
93309
93309
93438.57
93438.57
93438.57
93438.57
93438.57
92532.75
92532.75
92532.75
92532.75
92532.75
92537.48
92537.48
92537.48
92537.48
92537.48
93454.86
93454.86
93454.86
93454.86
93454.86
93262.67
93262.67
93262.67
93262.67
93262.67
93313.05
93313.05
93313.05
93313.05
93313.05
93457.57
93457.57
93457.57
93457.57
93457.57
92626.71
92626.71
92626.71
92626.71
92626.71
92192.95
92192.95
92192.95
92192.95
92192.95
93051.44
93051.44
93051.44
93051.44
93051.44
92819.78
92819.78
92819.78
92819.78
92819.78
93270.21
93270.21
93270.21
93270.21
93270.21
93516.73
93516.73
93516.73
93516.73
93516.73
92775.34
92775.34
92775.34
92775.34
92775.34
92001.58
92001.58
92001.58
92001.58
92001.58
92048.28
92048.28
92048.28
92048.28
92048.28
92589.88
92589.88
92589.88
92589.88
92589.88
93338.39
93338.39
93338.39
93338.39
93338.39
92993.96
92993.96
92993.96
92993.96
92993.96
92392.23
92392.23
92392.23
92392.23
92392.23
92726.5
92726.5
92726.5
92726.5
92726.5
91877.62
91877.62
91877.62
91877.62
91877.62
92305.71
92305.71
92305.71
92305.71
92305.71
93101.44
93101.44
93101.44
93101.44
93101.44
92853.17
92853.17
92853.17
92853.17
92853.17
92780.46
92780.46
92780.46
92780.46
92780.46
93068.64
93068.64
93068.64
93068.64
93068.64
92151.79
92151.79
92151.79
92151.79
92151.79
92278.27
92278.27
92278.27
92278.27
92278.27
93097.33
93097.33
93097.33
93097.33
93097.33
92834.22
92834.22
92834.22
92834.22
92834.22
92811.09
92811.09
92811.09
92811.09
92811.09
93107.48
93107.48
93107.48
93107.48
93107.48
92231.28
92231.28
92231.28
92231.28
92231.28
92249.28
92249.28
92249.28
92249.28
92249.28
93093.59
93093.59
93093.59
93093.59
93093.59
92819.76
92819.76
92819.76
92819.76
92819.76
92819.82
92819.82
92819.82
92819.82
92819.82
93091.66
93091.66
93091.66
93091.66
93091.66
92246.99
92246.99
92246.99
92246.99
92246.99
92233.4
92233.4
92233.4
92233.4
92233.4
93113.75
93113.75
93113.75
93113.75
93113.75
92816.94
92816.94
92816.94
92816.94
92816.94
92834.73
92834.73
92834.73
92834.73
92834.73
93095.08
93095.08
93095.08
93095.08
93095.08
92276.14
92276.14
92276.14
92276.14
92276.14
92158.08
92158.08
92158.08
92158.08
92158.08
93073.04
93073.04
93073.04
93073.04
93073.04
92779.89
92779.89
92779.89
92779.89
92779.89
92853.44
92853.44
92853.44
92853.44
92853.44
93103.58
93103.58
93103.58
93103.58
93103.58
92306.14
92306.14
92306.14
92306.14
92306.14
91880.05
91880.05
91880.05
91880.05
91880.05
92731.48
92731.48
92731.48
92731.48
92731.48
92394.06
92394.06
92394.06
92394.06
92394.06
92995.87
92995.87
92995.87
92995.87
92995.87
93336.49
93336.49
93336.49
93336.49
93336.49
92587.88
92587.88
92587.88
92587.88
92587.88
92050.87
92050.87
92050.87
92050.87
92050.87
91751.82
91751.82
91751.82
91751.82
91751.82
92374.1
92374.1
92374.1
92374.1
92374.1
93042
93042
93042
93042
93042
92674.36
92674.36
92674.36
92674.36
92674.36
92067.39
92067.39
92067.39
92067.39
92067.39
92357.02
92357.02
92357.02
92357.02
92357.02
91655.46
91655.46
91655.46
91655.46
91655.46
92039.58
92039.58
92039.58
92039.58
92039.58
92739.85
92739.85
92739.85
92739.85
92739.85
92483.52
92483.52
92483.52
92483.52
92483.52
92409.95
92409.95
92409.95
92409.95
92409.95
92639.43
92639.43
92639.43
92639.43
92639.43
91904.39
91904.39
91904.39
91904.39
91904.39
92043.29
92043.29
92043.29
92043.29
92043.29
92721.54
92721.54
92721.54
92721.54
92721.54
92451.72
92451.72
92451.72
92451.72
92451.72
92431.66
92431.66
92431.66
92431.66
92431.66
92687.71
92687.71
92687.71
92687.71
92687.71
91956.12
91956.12
91956.12
91956.12
91956.12
91997.56
91997.56
91997.56
91997.56
91997.56
92698.11
92698.11
92698.11
92698.11
92698.11
92428.85
92428.85
92428.85
92428.85
92428.85
92428.69
92428.69
92428.69
92428.69
92428.69
92696.57
92696.57
92696.57
92696.57
92696.57
92000.2
92000.2
92000.2
92000.2
92000.2
91957.74
91957.74
91957.74
91957.74
91957.74
92688.84
92688.84
92688.84
92688.84
92688.84
92432.7
92432.7
92432.7
92432.7
92432.7
92450.54
92450.54
92450.54
92450.54
92450.54
92721.08
92721.08
92721.08
92721.08
92721.08
92040.41
92040.41
92040.41
92040.41
92040.41
91904.94
91904.94
91904.94
91904.94
91904.94
92639.94
92639.94
92639.94
92639.94
92639.94
92409.17
92409.17
92409.17
92409.17
92409.17
92484.5
92484.5
92484.5
92484.5
92484.5
92742.35
92742.35
92742.35
92742.35
92742.35
92041.03
92041.03
92041.03
92041.03
92041.03
91657.37
91657.37
91657.37
91657.37
91657.37
92358.89
92358.89
92358.89
92358.89
92358.89
92067.43
92067.43
92067.43
92067.43
92067.43
92679.06
92679.06
92679.06
92679.06
92679.06
93047.56
93047.56
93047.56
93047.56
93047.56
92379.54
92379.54
92379.54
92379.54
92379.54
91757.29
91757.29
91757.29
91757.29
91757.29
91536.45
91536.45
91536.45
91536.45
91536.45
92172.94
92172.94
92172.94
92172.94
92172.94
92723.62
92723.62
92723.62
92723.62
92723.62
92398.25
92398.25
92398.25
92398.25
92398.25
91797.69
91797.69
91797.69
91797.69
91797.69
92082.88
92082.88
92082.88
92082.88
92082.88
91391.96
91391.96
91391.96
91391.96
91391.96
91814.35
91814.35
91814.35
91814.35
91814.35
92433.06
92433.06
92433.06
92433.06
92433.06
92185.98
92185.98
92185.98
92185.98
92185.98
92086.87
92086.87
92086.87
92086.87
92086.87
92302.88
92302.88
92302.88
92302.88
92302.88
91632.67
91632.67
91632.67
91632.67
91632.67
91792
91792
91792
91792
91792
92399.17
92399.17
92399.17
92399.17
92399.17
92129.8
92129.8
92129.8
92129.8
92129.8
92106.35
92106.35
92106.35
92106.35
92106.35
92352.26
92352.26
92352.26
92352.26
92352.26
91683.74
91683.74
91683.74
91683.74
91683.74
91739.89
91739.89
91739.89
91739.89
91739.89
92377.52
92377.52
92377.52
92377.52
92377.52
92112.41
92112.41
92112.41
92112.41
92112.41
92112.08
92112.08
92112.08
92112.08
92112.08
92376.24
92376.24
92376.24
92376.24
92376.24
91740.16
91740.16
91740.16
91740.16
91740.16
91686.26
91686.26
91686.26
91686.26
91686.26
92354.49
92354.49
92354.49
92354.49
92354.49
92109.01
92109.01
92109.01
92109.01
92109.01
92130.51
92130.51
92130.51
92130.51
92130.51
92392.25
92392.25
92392.25
92392.25
92392.25
91793.63
91793.63
91793.63
91793.63
91793.63
91638.64
91638.64
91638.64
91638.64
91638.64
92309.08
92309.08
92309.08
92309.08
92309.08
92091.13
92091.13
92091.13
92091.13
92091.13
92177.72
92177.72
92177.72
92177.72
92177.72
92426.61
92426.61
92426.61
92426.61
92426.61
91808.11
91808.11
91808.11
91808.11
91808.11
91385.34
91385.34
91385.34
91385.34
91385.34
92074.17
92074.17
92074.17
92074.17
92074.17
91790.46
91790.46
91790.46
91790.46
91790.46
92378.12
92378.12
92378.12
92378.12
92378.12
92704.06
92704.06
92704.06
92704.06
92704.06
92153.34
92153.34
92153.34
92153.34
92153.34
91517.07
91517.07
91517.07
91517.07
91517.07
91300.21
91300.21
91300.21
91300.21
91300.21
91952.54
91952.54
91952.54
91952.54
91952.54
92402.73
92402.73
92402.73
92402.73
92402.73
92122.28
92122.28
92122.28
92122.28
92122.28
91541.72
91541.72
91541.72
91541.72
91541.72
91791.6
91791.6
91791.6
91791.6
91791.6
91141.25
91141.25
91141.25
91141.25
91141.25
91596.73
91596.73
91596.73
91596.73
91596.73
92125.05
92125.05
92125.05
92125.05
92125.05
91900.52
91900.52
91900.52
91900.52
91900.52
91800.13
91800.13
91800.13
91800.13
91800.13
92008.79
92008.79
92008.79
92008.79
92008.79
91382.17
91382.17
91382.17
91382.17
91382.17
91539.54
91539.54
91539.54
91539.54
91539.54
92099.81
92099.81
92099.81
92099.81
92099.81
91855.2
91855.2
91855.2
91855.2
91855.2
91843.15
91843.15
91843.15
91843.15
91843.15
92081.93
92081.93
92081.93
92081.93
92081.93
91460.65
91460.65
91460.65
91460.65
91460.65
91500.65
91500.65
91500.65
91500.65
91500.65
92091.77
92091.77
92091.77
92091.77
92091.77
91850.51
91850.51
91850.51
91850.51
91850.51
91849.8
91849.8
91849.8
91849.8
91849.8
92089.74
92089.74
92089.74
92089.74
92089.74
91500.34
91500.34
91500.34
91500.34
91500.34
91460.4
91460.4
91460.4
91460.4
91460.4
92069.98
92069.98
92069.98
92069.98
92069.98
91831.31
91831.31
91831.31
91831.31
91831.31
91854.82
91854.82
91854.82
91854.82
91854.82
92096.75
92096.75
92096.75
92096.75
92096.75
91537.55
91537.55
91537.55
91537.55
91537.55
91380.07
91380.07
91380.07
91380.07
91380.07
92006.96
92006.96
92006.96
92006.96
92006.96
91796.75
91796.75
91796.75
91796.75
91796.75
91898.02
91898.02
91898.02
91898.02
91898.02
92124.56
92124.56
92124.56
92124.56
92124.56
91597.1
91597.1
91597.1
91597.1
91597.1
91140.87
91140.87
91140.87
91140.87
91140.87
91788.73
91788.73
91788.73
91788.73
91788.73
91538.99
91538.99
91538.99
91538.99
91538.99
92119.89
92119.89
92119.89
92119.89
92119.89
92402.24
92402.24
92402.24
92402.24
92402.24
91952.02
91952.02
91952.02
91952.02
91952.02
91296.74
91296.74
91296.74
91296.74
91296.74
91094.21
91094.21
91094.21
91094.21
91094.21
91778.34
91778.34
91778.34
91778.34
91778.34
92141.92
92141.92
92141.92
92141.92
92141.92
91903.68
91903.68
91903.68
91903.68
91903.68
91365.04
91365.04
91365.04
91365.04
91365.04
91567.46
91567.46
91567.46
91567.46
91567.46
90953.85
90953.85
90953.85
90953.85
90953.85
91424.95
91424.95
91424.95
91424.95
91424.95
91886.37
91886.37
91886.37
91886.37
91886.37
91683.37
91683.37
91683.37
91683.37
91683.37
91573.87
91573.87
91573.87
91573.87
91573.87
91790.76
91790.76
91790.76
91790.76
91790.76
91167.04
91167.04
91167.04
91167.04
91167.04
91303
91303
91303
91303
91303
91846.04
91846.04
91846.04
91846.04
91846.04
91621.63
91621.63
91621.63
91621.63
91621.63
91597.89
91597.89
91597.89
91597.89
91597.89
91842.24
91842.24
91842.24
91842.24
91842.24
91247.65
91247.65
91247.65
91247.65
91247.65
91250.97
91250.97
91250.97
91250.97
91250.97
91810.99
91810.99
91810.99
91810.99
91810.99
91605.01
91605.01
91605.01
91605.01
91605.01
91604.09
91604.09
91604.09
91604.09
91604.09
91809.77
91809.77
91809.77
91809.77
91809.77
91251.19
91251.19
91251.19
91251.19
91251.19
91247.74
91247.74
91247.74
91247.74
91247.74
91843.54
91843.54
91843.54
91843.54
91843.54
91598.42
91598.42
91598.42
91598.42
91598.42
91621.38
91621.38
91621.38
91621.38
91621.38
91844.06
91844.06
91844.06
91844.06
91844.06
91301.72
91301.72
91301.72
91301.72
91301.72
91166.17
91166.17
91166.17
91166.17
91166.17
91790.9
91790.9
91790.9
91790.9
91790.9
91573.18
91573.18
91573.18
91573.18
91573.18
91683.53
91683.53
91683.53
91683.53
91683.53
91888.53
91888.53
91888.53
91888.53
91888.53
91426.99
91426.99
91426.99
91426.99
91426.99
90955.43
90955.43
90955.43
90955.43
90955.43
91566.84
91566.84
91566.84
91566.84
91566.84
91364.08
91364.08
91364.08
91364.08
91364.08
91903.26
91903.26
91903.26
91903.26
91903.26
92142.03
92142.03
92142.03
92142.03
92142.03
91778.41
91778.41
91778.41
91778.41
91778.41
91094.21
91094.21
91094.21
91094.21
91094.21
90900.39
90900.39
90900.39
90900.39
90900.39
91610.02
91610.02
91610.02
91610.02
91610.02
91883.95
91883.95
91883.95
91883.95
91883.95
91673.88
91673.88
91673.88
91673.88
91673.88
91184.33
91184.33
91184.33
91184.33
91184.33
91347.6
91347.6
91347.6
91347.6
91347.6
90766.01
90766.01
90766.01
90766.01
90766.01
91227.69
91227.69
91227.69
91227.69
91227.69
91649.87
91649.87
91649.87
91649.87
91649.87
91460.85
91460.85
91460.85
91460.85
91460.85
91357.33
91357.33
91357.33
91357.33
91357.33
91580.76
91580.76
91580.76
91580.76
91580.76
90987.08
90987.08
90987.08
90987.08
90987.08
91091.93
91091.93
91091.93
91091.93
91091.93
91621.98
91621.98
91621.98
91621.98
91621.98
91417.65
91417.65
91417.65
91417.65
91417.65
91399.31
91399.31
91399.31
91399.31
91399.31
91651.59
91651.59
91651.59
91651.59
91651.59
91080.12
91080.12
91080.12
91080.12
91080.12
91056.65
91056.65
91056.65
91056.65
91056.65
91604.32
91604.32
91604.32
91604.32
91604.32
91419.69
91419.69
91419.69
91419.69
91419.69
91419.08
91419.08
91419.08
91419.08
91419.08
91603.69
91603.69
91603.69
91603.69
91603.69
91057.79
91057.79
91057.79
91057.79
91057.79
91081.29
91081.29
91081.29
91081.29
91081.29
91666.01
91666.01
91666.01
91666.01
91666.01
91412.33
91412.33
91412.33
91412.33
91412.33
91417.44
91417.44
91417.44
91417.44
91417.44
91621.2
91621.2
91621.2
91621.2
91621.2
91090.95
91090.95
91090.95
91090.95
91090.95
90987.8
90987.8
90987.8
90987.8
90987.8
91582.76
91582.76
91582.76
91582.76
91582.76
91358.99
91358.99
91358.99
91358.99
91358.99
91463.51
91463.51
91463.51
91463.51
91463.51
91654.16
91654.16
91654.16
91654.16
91654.16
91230.07
91230.07
91230.07
91230.07
91230.07
90770.79
90770.79
90770.79
90770.79
90770.79
91349.63
91349.63
91349.63
91349.63
91349.63
91185.05
91185.05
91185.05
91185.05
91185.05
91675.41
91675.41
91675.41
91675.41
91675.41
91884.65
91884.65
91884.65
91884.65
91884.65
91610.84
91610.84
91610.84
91610.84
91610.84
90904.02
90904.02
90904.02
90904.02
90904.02
90719.6
90719.6
90719.6
90719.6
90719.6
91439.03
91439.03
91439.03
91439.03
91439.03
91661.5
91661.5
91661.5
91661.5
91661.5
91478.79
91478.79
91478.79
91478.79
91478.79
91056.19
91056.19
91056.19
91056.19
91056.19
91180.08
91180.08
91180.08
91180.08
91180.08
90631.48
90631.48
90631.48
90631.48
90631.48
91077.37
91077.37
91077.37
91077.37
91077.37
91479.39
91479.39
91479.39
91479.39
91479.39
91290.22
91290.22
91290.22
91290.22
91290.22
91199.98
91199.98
91199.98
91199.98
91199.98
91425.74
91425.74
91425.74
91425.74
91425.74
90847.24
90847.24
90847.24
90847.24
90847.24
90923.74
90923.74
90923.74
90923.74
90923.74
91432.24
91432.24
91432.24
91432.24
91432.24
91241.55
91241.55
91241.55
91241.55
91241.55
91231.5
91231.5
91231.5
91231.5
91231.5
91482.92
91482.92
91482.92
91482.92
91482.92
90901.06
90901.06
90901.06
90901.06
90901.06
90874.73
90874.73
90874.73
90874.73
90874.73
91413.53
91413.53
91413.53
91413.53
91413.53
91236.18
91236.18
91236.18
91236.18
91236.18
91235.9
91235.9
91235.9
91235.9
91235.9
91412.71
91412.71
91412.71
91412.71
91412.71
90874.82
90874.82
90874.82
90874.82
90874.82
90900.12
90900.12
90900.12
90900.12
90900.12
91483.42
91483.42
91483.42
91483.42
91483.42
91230.61
91230.61
91230.61
91230.61
91230.61
91240.19
91240.19
91240.19
91240.19
91240.19
91435.31
91435.31
91435.31
91435.31
91435.31
90917.77
90917.77
90917.77
90917.77
90917.77
90840.58
90840.58
90840.58
90840.58
90840.58
91420.14
91420.14
91420.14
91420.14
91420.14
91193.88
91193.88
91193.88
91193.88
91193.88
91298.63
91298.63
91298.63
91298.63
91298.63
91489.89
91489.89
91489.89
91489.89
91489.89
91085.97
91085.97
91085.97
91085.97
91085.97
90641.74
90641.74
90641.74
90641.74
90641.74
91188.66
91188.66
91188.66
91188.66
91188.66
91061.1
91061.1
91061.1
91061.1
91061.1
91497.77
91497.77
91497.77
91497.77
91497.77
91681.06
91681.06
91681.06
91681.06
91681.06
91458.9
91458.9
91458.9
91458.9
91458.9
90739.06
90739.06
90739.06
90739.06
90739.06
90557.13
90557.13
90557.13
90557.13
90557.13
91254.1
91254.1
91254.1
91254.1
91254.1
91461.95
91461.95
91461.95
91461.95
91461.95
91302.61
91302.61
91302.61
91302.61
91302.61
90922.29
90922.29
90922.29
90922.29
90922.29
91005.29
91005.29
91005.29
91005.29
91005.29
90487.96
90487.96
90487.96
90487.96
90487.96
90906.55
90906.55
90906.55
90906.55
90906.55
91313.74
91313.74
91313.74
91313.74
91313.74
91111.75
91111.75
91111.75
91111.75
91111.75
91012.56
91012.56
91012.56
91012.56
91012.56
91229.82
91229.82
91229.82
91229.82
91229.82
90667.3
90667.3
90667.3
90667.3
90667.3
90741.79
90741.79
90741.79
90741.79
90741.79
91244.28
91244.28
91244.28
91244.28
91244.28
91051.33
91051.33
91051.33
91051.33
91051.33
91047.3
91047.3
91047.3
91047.3
91047.3
91292.16
91292.16
91292.16
91292.16
91292.16
90716.06
90716.06
90716.06
90716.06
90716.06
90701.23
90701.23
90701.23
90701.23
90701.23
91225.61
91225.61
91225.61
91225.61
91225.61
91050.78
91050.78
91050.78
91050.78
91050.78
91050.95
91050.95
91050.95
91050.95
91050.95
91225.25
91225.25
91225.25
91225.25
91225.25
90703.75
90703.75
90703.75
90703.75
90703.75
90716.13
90716.13
90716.13
90716.13
90716.13
91293.92
91293.92
91293.92
91293.92
91293.92
91048.26
91048.26
91048.26
91048.26
91048.26
91051.53
91051.53
91051.53
91051.53
91051.53
91239.21
91239.21
91239.21
91239.21
91239.21
90754.24
90754.24
90754.24
90754.24
90754.24
90679.93
90679.93
90679.93
90679.93
90679.93
91243.06
91243.06
91243.06
91243.06
91243.06
91024.81
91024.81
91024.81
91024.81
91024.81
91103.37
91103.37
91103.37
91103.37
91103.37
91306.42
91306.42
91306.42
91306.42
91306.42
90897.44
90897.44
90897.44
90897.44
90897.44
90477.96
90477.96
90477.96
90477.96
90477.96
90992.84
90992.84
90992.84
90992.84
90992.84
90903.92
90903.92
90903.92
90903.92
90903.92
91267.38
91267.38
91267.38
91267.38
91267.38
91426.97
91426.97
91426.97
91426.97
91426.97
91219.51
91219.51
91219.51
91219.51
91219.51
90522.61
90522.61
90522.61
90522.61
90522.61
90364.38
90364.38
90364.38
90364.38
90364.38
91018.24
91018.24
91018.24
91018.24
91018.24
91233.54
91233.54
91233.54
91233.54
91233.54
91093.45
91093.45
91093.45
91093.45
91093.45
90764.94
90764.94
90764.94
90764.94
90764.94
90831.07
90831.07
90831.07
90831.07
90831.07
90347.2
90347.2
90347.2
90347.2
90347.2
90707.8
90707.8
90707.8
90707.8
90707.8
91133.64
91133.64
91133.64
91133.64
91133.64
90931.5
90931.5
90931.5
90931.5
90931.5
90861.62
90861.62
90861.62
90861.62
90861.62
91058.57
91058.57
91058.57
91058.57
91058.57
90523.36
90523.36
90523.36
90523.36
90523.36
90595.33
90595.33
90595.33
90595.33
90595.33
91088.81
91088.81
91088.81
91088.81
91088.81
90896.82
90896.82
90896.82
90896.82
90896.82
90905.05
90905.05
90905.05
90905.05
90905.05
91131.3
91131.3
91131.3
91131.3
91131.3
90577.54
90577.54
90577.54
90577.54
90577.54
90585.73
90585.73
90585.73
90585.73
90585.73
91088.4
91088.4
91088.4
91088.4
91088.4
90909.91
90909.91
90909.91
90909.91
90909.91
90910
90910
90910
90910
90910
91086.04
91086.04
91086.04
91086.04
91086.04
90584.5
90584.5
90584.5
90584.5
90584.5
90575.35
90575.35
90575.35
90575.35
90575.35
91114.69
91114.69
91114.69
91114.69
91114.69
90887.83
90887.83
90887.83
90887.83
90887.83
90896.05
90896.05
90896.05
90896.05
90896.05
91085.7
91085.7
91085.7
91085.7
91085.7
90593.84
90593.84
90593.84
90593.84
90593.84
90519.82
90519.82
90519.82
90519.82
90519.82
91056.49
91056.49
91056.49
91056.49
91056.49
90857.95
90857.95
90857.95
90857.95
90857.95
90929.43
90929.43
90929.43
90929.43
90929.43
91137.4
91137.4
91137.4
91137.4
91137.4
90710.04
90710.04
90710.04
90710.04
90710.04
90343.47
90343.47
90343.47
90343.47
90343.47
90826.99
90826.99
90826.99
90826.99
90826.99
90762.04
90762.04
90762.04
90762.04
90762.04
91091.87
91091.87
91091.87
91091.87
91091.87
91233.5
91233.5
91233.5
91233.5
91233.5
91018.14
91018.14
91018.14
91018.14
91018.14
90361.4
90361.4
90361.4
90361.4
90361.4
90215.75
90215.75
90215.75
90215.75
90215.75
90830.71
90830.71
90830.71
90830.71
90830.71
91079.3
91079.3
91079.3
91079.3
91079.3
90949.6
90949.6
90949.6
90949.6
90949.6
90668.22
90668.22
90668.22
90668.22
90668.22
90744.66
90744.66
90744.66
90744.66
90744.66
90289.58
90289.58
90289.58
90289.58
90289.58
90547.03
90547.03
90547.03
90547.03
90547.03
90959.66
90959.66
90959.66
90959.66
90959.66
90801.18
90801.18
90801.18
90801.18
90801.18
90749.13
90749.13
90749.13
90749.13
90749.13
90928.96
90928.96
90928.96
90928.96
90928.96
90417.06
90417.06
90417.06
90417.06
90417.06
90456.17
90456.17
90456.17
90456.17
90456.17
90911.71
90911.71
90911.71
90911.71
90911.71
90750.15
90750.15
90750.15
90750.15
90750.15
90731.92
90731.92
90731.92
90731.92
90731.92
90907.35
90907.35
90907.35
90907.35
90907.35
90421.43
90421.43
90421.43
90421.43
90421.43
90453.58
90453.58
90453.58
90453.58
90453.58
90932.16
90932.16
90932.16
90932.16
90932.16
90750.93
90750.93
90750.93
90750.93
90750.93
90750.66
90750.66
90750.66
90750.66
90750.66
90930.91
90930.91
90930.91
90930.91
90930.91
90453.16
90453.16
90453.16
90453.16
90453.16
90421.04
90421.04
90421.04
90421.04
90421.04
90909.5
90909.5
90909.5
90909.5
90909.5
90733.53
90733.53
90733.53
90733.53
90733.53
90750.34
90750.34
90750.34
90750.34
90750.34
90911.3
90911.3
90911.3
90911.3
90911.3
90455.55
90455.55
90455.55
90455.55
90455.55
90414.5
90414.5
90414.5
90414.5
90414.5
90928.71
90928.71
90928.71
90928.71
90928.71
90747.71
90747.71
90747.71
90747.71
90747.71
90801.74
90801.74
90801.74
90801.74
90801.74
90965.58
90965.58
90965.58
90965.58
90965.58
90551.02
90551.02
90551.02
90551.02
90551.02
90288.04
90288.04
90288.04
90288.04
90288.04
90742.31
90742.31
90742.31
90742.31
90742.31
90667.13
90667.13
90667.13
90667.13
90667.13
90949.86
90949.86
90949.86
90949.86
90949.86
91079.53
91079.53
91079.53
91079.53
91079.53
90830.68
90830.68
90830.68
90830.68
90830.68
90215.98
90215.98
90215.98
90215.98
90215.98
90086.99
90086.99
90086.99
90086.99
90086.99
90663.58
90663.58
90663.58
90663.58
90663.58
90906.01
90906.01
90906.01
90906.01
90906.01
90774.52
90774.52
90774.52
90774.52
90774.52
90542.12
90542.12
90542.12
90542.12
90542.12
90662.51
90662.51
90662.51
90662.51
90662.51
90240.91
90240.91
90240.91
90240.91
90240.91
90367.98
90367.98
90367.98
90367.98
90367.98
90712.03
90712.03
90712.03
90712.03
90712.03
90627.46
90627.46
90627.46
90627.46
90627.46
90622.27
90622.27
90622.27
90622.27
90622.27
90820.12
90820.12
90820.12
90820.12
90820.12
90356.36
90356.36
90356.36
90356.36
90356.36
90324.98
90324.98
90324.98
90324.98
90324.98
90682.59
90682.59
90682.59
90682.59
90682.59
90597.61
90597.61
90597.61
90597.61
90597.61
90586.27
90586.27
90586.27
90586.27
90586.27
90705.37
90705.37
90705.37
90705.37
90705.37
90311.63
90311.63
90311.63
90311.63
90311.63
90375.1
90375.1
90375.1
90375.1
90375.1
90827.66
90827.66
90827.66
90827.66
90827.66
90640.71
90640.71
90640.71
90640.71
90640.71
90639.95
90639.95
90639.95
90639.95
90639.95
90827.47
90827.47
90827.47
90827.47
90827.47
90375.68
90375.68
90375.68
90375.68
90375.68
90313.28
90313.28
90313.28
90313.28
90313.28
90725.56
90725.56
90725.56
90725.56
90725.56
90605.97
90605.97
90605.97
90605.97
90605.97
90598.9
90598.9
90598.9
90598.9
90598.9
90685.73
90685.73
90685.73
90685.73
90685.73
90324.5
90324.5
90324.5
90324.5
90324.5
90353.64
90353.64
90353.64
90353.64
90353.64
90819.33
90819.33
90819.33
90819.33
90819.33
90622.49
90622.49
90622.49
90622.49
90622.49
90631.05
90631.05
90631.05
90631.05
90631.05
90719.48
90719.48
90719.48
90719.48
90719.48
90373.35
90373.35
90373.35
90373.35
90373.35
90241.9
90241.9
90241.9
90241.9
90241.9
90662.2
90662.2
90662.2
90662.2
90662.2
90542.8
90542.8
90542.8
90542.8
90542.8
90776.19
90776.19
90776.19
90776.19
90776.19
90906.47
90906.47
90906.47
90906.47
90906.47
90663.76
90663.76
90663.76
90663.76
90663.76
90090.53
90090.53
90090.53
90090.53
90090.53
89964.99
89964.99
89964.99
89964.99
89964.99
90501.47
90501.47
90501.47
90501.47
90501.47
90740.14
90740.14
90740.14
90740.14
90740.14
90616.77
90616.77
90616.77
90616.77
90616.77
90462.4
90462.4
90462.4
90462.4
90462.4
90616.87
90616.87
90616.87
90616.87
90616.87
90228.7
90228.7
90228.7
90228.7
90228.7
90256.98
90256.98
90256.98
90256.98
90256.98
90506.11
90506.11
90506.11
90506.11
90506.11
90496.36
90496.36
90496.36
90496.36
90496.36
90560.66
90560.66
90560.66
90560.66
90560.66
90814.69
90814.69
90814.69
90814.69
90814.69
90368.56
90368.56
90368.56
90368.56
90368.56
90236.9
90236.9
90236.9
90236.9
90236.9
90452.86
90452.86
90452.86
90452.86
90452.86
90452.27
90452.27
90452.27
90452.27
90452.27
90460.87
90460.87
90460.87
90460.87
90460.87
90533.96
90533.96
90533.96
90533.96
90533.96
90177.55
90177.55
90177.55
90177.55
90177.55
90261.78
90261.78
90261.78
90261.78
90261.78
90698.37
90698.37
90698.37
90698.37
90698.37
90511.24
90511.24
90511.24
90511.24
90511.24
90509.52
90509.52
90509.52
90509.52
90509.52
90694.97
90694.97
90694.97
90694.97
90694.97
90258.53
90258.53
90258.53
90258.53
90258.53
90177.7
90177.7
90177.7
90177.7
90177.7
90535.04
90535.04
90535.04
90535.04
90535.04
90461.29
90461.29
90461.29
90461.29
90461.29
90452.81
90452.81
90452.81
90452.81
90452.81
90459.97
90459.97
90459.97
90459.97
90459.97
90221.39
90221.39
90221.39
90221.39
90221.39
90347.82
90347.82
90347.82
90347.82
90347.82
90796.19
90796.19
90796.19
90796.19
90796.19
90544.66
90544.66
90544.66
90544.66
90544.66
90506.07
90506.07
90506.07
90506.07
90506.07
90521.31
90521.31
90521.31
90521.31
90521.31
90270.1
90270.1
90270.1
90270.1
90270.1
90238.06
90238.06
90238.06
90238.06
90238.06
90625.9
90625.9
90625.9
90625.9
90625.9
90477.95
90477.95
90477.95
90477.95
90477.95
90651.27
90651.27
90651.27