/*--------------------------------*- C++ -*----------------------------------*\
| =========                 |                                                 |
| \\      /  F ield         | OpenFOAM: The Open Source CFD Toolbox           |
|  \\    /   O peration     | Version:  4.0                                   |
|   \\  /    A nd           | Web:      www.OpenFOAM.org                      |
|    \\/     M anipulation  |                                                 |
\*---------------------------------------------------------------------------*/
FoamFile
{
    version     2.0;
    format      ascii;
    class       volScalarField;
    location    "60/electrolyte";
    object      etaActA;
}
// * * * * * * * * * * * * * * * * * * * * * * * * * * * * * * * * * * * * * //

dimensions      [1 2 -3 0 0 -1 0];

internalField   nonuniform List<scalar> 
4840
(
0.3040193
0.3040193
0.3040193
0.3040193
0.3040193
0.3038741
0.3038741
0.3038741
0.3038741
0.3038741
0.3036671
0.3036671
0.3036671
0.3036671
0.3036671
0.3036063
0.3036063
0.3036063
0.3036063
0.3036063
0.3037093
0.3037093
0.3037093
0.3037093
0.3037093
0.3037775
0.3037775
0.3037775
0.3037775
0.3037775
0.3040265
0.3040265
0.3040265
0.3040265
0.3040265
0.3040424
0.3040424
0.3040424
0.3040424
0.3040424
0.3038347
0.3038347
0.3038347
0.3038347
0.3038347
0.3040965
0.3040965
0.3040965
0.3040965
0.3040965
0.3041211
0.3041211
0.3041211
0.3041211
0.3041211
0.3039901
0.3039901
0.3039901
0.3039901
0.3039901
0.3041853
0.3041853
0.3041853
0.3041853
0.3041853
0.3041527
0.3041527
0.3041527
0.3041527
0.3041527
0.3039381
0.3039381
0.3039381
0.3039381
0.3039381
0.3041821
0.3041821
0.3041821
0.3041821
0.3041821
0.3041592
0.3041592
0.3041592
0.3041592
0.3041592
0.303986
0.303986
0.303986
0.303986
0.303986
0.3041898
0.3041898
0.3041898
0.3041898
0.3041898
0.3041687
0.3041687
0.3041687
0.3041687
0.3041687
0.3039553
0.3039553
0.3039553
0.3039553
0.3039553
0.3041622
0.3041622
0.3041622
0.3041622
0.3041622
0.304162
0.304162
0.304162
0.304162
0.304162
0.3039551
0.3039551
0.3039551
0.3039551
0.3039551
0.3041648
0.3041648
0.3041648
0.3041648
0.3041648
0.3041894
0.3041894
0.3041894
0.3041894
0.3041894
0.3039856
0.3039856
0.3039856
0.3039856
0.3039856
0.3041588
0.3041588
0.3041588
0.3041588
0.3041588
0.3041811
0.3041811
0.3041811
0.3041811
0.3041811
0.3039382
0.3039382
0.3039382
0.3039382
0.3039382
0.3041467
0.3041467
0.3041467
0.3041467
0.3041467
0.3041771
0.3041771
0.3041771
0.3041771
0.3041771
0.3039818
0.3039818
0.3039818
0.3039818
0.3039818
0.3041133
0.3041133
0.3041133
0.3041133
0.3041133
0.3040957
0.3040957
0.3040957
0.3040957
0.3040957
0.3038349
0.3038349
0.3038349
0.3038349
0.3038349
0.3040433
0.3040433
0.3040433
0.3040433
0.3040433
0.3040277
0.3040277
0.3040277
0.3040277
0.3040277
0.3037785
0.3037785
0.3037785
0.3037785
0.3037785
0.303714
0.303714
0.303714
0.303714
0.303714
0.3036131
0.3036131
0.3036131
0.3036131
0.3036131
0.3036754
0.3036754
0.3036754
0.3036754
0.3036754
0.3038818
0.3038818
0.3038818
0.3038818
0.3038818
0.3040259
0.3040259
0.3040259
0.3040259
0.3040259
0.3042606
0.3042606
0.3042606
0.3042606
0.3042606
0.3047489
0.3047489
0.3047489
0.3047489
0.3047489
0.3052064
0.3052064
0.3052064
0.3052064
0.3052064
0.3053095
0.3053095
0.3053095
0.3053095
0.3053095
0.3052177
0.3052177
0.3052177
0.3052177
0.3052177
0.3052524
0.3052524
0.3052524
0.3052524
0.3052524
0.3046018
0.3046018
0.3046018
0.3046018
0.3046018
0.3048503
0.3048503
0.3048503
0.3048503
0.3048503
0.3054263
0.3054263
0.3054263
0.3054263
0.3054263
0.3055261
0.3055261
0.3055261
0.3055261
0.3055261
0.3055416
0.3055416
0.3055416
0.3055416
0.3055416
0.305476
0.305476
0.305476
0.305476
0.305476
0.3048446
0.3048446
0.3048446
0.3048446
0.3048446
0.3048608
0.3048608
0.3048608
0.3048608
0.3048608
0.3054689
0.3054689
0.3054689
0.3054689
0.3054689
0.3055587
0.3055587
0.3055587
0.3055587
0.3055587
0.3055543
0.3055543
0.3055543
0.3055543
0.3055543
0.3054817
0.3054817
0.3054817
0.3054817
0.3054817
0.3048659
0.3048659
0.3048659
0.3048659
0.3048659
0.3048485
0.3048485
0.3048485
0.3048485
0.3048485
0.3054647
0.3054647
0.3054647
0.3054647
0.3054647
0.305557
0.305557
0.305557
0.305557
0.305557
0.3055564
0.3055564
0.3055564
0.3055564
0.3055564
0.3054651
0.3054651
0.3054651
0.3054651
0.3054651
0.3048491
0.3048491
0.3048491
0.3048491
0.3048491
0.3048672
0.3048672
0.3048672
0.3048672
0.3048672
0.3054869
0.3054869
0.3054869
0.3054869
0.3054869
0.3055601
0.3055601
0.3055601
0.3055601
0.3055601
0.3055594
0.3055594
0.3055594
0.3055594
0.3055594
0.3054687
0.3054687
0.3054687
0.3054687
0.3054687
0.3048602
0.3048602
0.3048602
0.3048602
0.3048602
0.3048381
0.3048381
0.3048381
0.3048381
0.3048381
0.3054688
0.3054688
0.3054688
0.3054688
0.3054688
0.3055378
0.3055378
0.3055378
0.3055378
0.3055378
0.3055241
0.3055241
0.3055241
0.3055241
0.3055241
0.3054247
0.3054247
0.3054247
0.3054247
0.3054247
0.3048482
0.3048482
0.3048482
0.3048482
0.3048482
0.3046017
0.3046017
0.3046017
0.3046017
0.3046017
0.3052509
0.3052509
0.3052509
0.3052509
0.3052509
0.3052154
0.3052154
0.3052154
0.3052154
0.3052154
0.3053065
0.3053065
0.3053065
0.3053065
0.3053065
0.3052075
0.3052075
0.3052075
0.3052075
0.3052075
0.3047499
0.3047499
0.3047499
0.3047499
0.3047499
0.3042574
0.3042574
0.3042574
0.3042574
0.3042574
0.3044932
0.3044932
0.3044932
0.3044932
0.3044932
0.3049335
0.3049335
0.3049335
0.3049335
0.3049335
0.3053452
0.3053452
0.3053452
0.3053452
0.3053452
0.3052066
0.3052066
0.3052066
0.3052066
0.3052066
0.3049513
0.3049513
0.3049513
0.3049513
0.3049513
0.305082
0.305082
0.305082
0.305082
0.305082
0.3045952
0.3045952
0.3045952
0.3045952
0.3045952
0.3048441
0.3048441
0.3048441
0.3048441
0.3048441
0.3053124
0.3053124
0.3053124
0.3053124
0.3053124
0.3052313
0.3052313
0.3052313
0.3052313
0.3052313
0.305203
0.305203
0.305203
0.305203
0.305203
0.3053125
0.3053125
0.3053125
0.3053125
0.3053125
0.304798
0.304798
0.304798
0.304798
0.304798
0.3047978
0.3047978
0.3047978
0.3047978
0.3047978
0.3053099
0.3053099
0.3053099
0.3053099
0.3053099
0.3052347
0.3052347
0.3052347
0.3052347
0.3052347
0.3052219
0.3052219
0.3052219
0.3052219
0.3052219
0.3053265
0.3053265
0.3053265
0.3053265
0.3053265
0.3048124
0.3048124
0.3048124
0.3048124
0.3048124
0.3047929
0.3047929
0.3047929
0.3047929
0.3047929
0.3053068
0.3053068
0.3053068
0.3053068
0.3053068
0.305224
0.305224
0.305224
0.305224
0.305224
0.3052237
0.3052237
0.3052237
0.3052237
0.3052237
0.3053068
0.3053068
0.3053068
0.3053068
0.3053068
0.3047928
0.3047928
0.3047928
0.3047928
0.3047928
0.3048126
0.3048126
0.3048126
0.3048126
0.3048126
0.3053273
0.3053273
0.3053273
0.3053273
0.3053273
0.3052228
0.3052228
0.3052228
0.3052228
0.3052228
0.3052349
0.3052349
0.3052349
0.3052349
0.3052349
0.3053085
0.3053085
0.3053085
0.3053085
0.3053085
0.3047961
0.3047961
0.3047961
0.3047961
0.3047961
0.3047989
0.3047989
0.3047989
0.3047989
0.3047989
0.3053113
0.3053113
0.3053113
0.3053113
0.3053113
0.3052023
0.3052023
0.3052023
0.3052023
0.3052023
0.3052308
0.3052308
0.3052308
0.3052308
0.3052308
0.3053128
0.3053128
0.3053128
0.3053128
0.3053128
0.3048432
0.3048432
0.3048432
0.3048432
0.3048432
0.3045958
0.3045958
0.3045958
0.3045958
0.3045958
0.3050832
0.3050832
0.3050832
0.3050832
0.3050832
0.3049513
0.3049513
0.3049513
0.3049513
0.3049513
0.3052064
0.3052064
0.3052064
0.3052064
0.3052064
0.3053459
0.3053459
0.3053459
0.3053459
0.3053459
0.3049339
0.3049339
0.3049339
0.3049339
0.3049339
0.3044933
0.3044933
0.3044933
0.3044933
0.3044933
0.3045205
0.3045205
0.3045205
0.3045205
0.3045205
0.3048289
0.3048289
0.3048289
0.3048289
0.3048289
0.3052521
0.3052521
0.3052521
0.3052521
0.3052521
0.3050555
0.3050555
0.3050555
0.3050555
0.3050555
0.3047135
0.3047135
0.3047135
0.3047135
0.3047135
0.3049044
0.3049044
0.3049044
0.3049044
0.3049044
0.3044207
0.3044207
0.3044207
0.3044207
0.3044207
0.3046656
0.3046656
0.3046656
0.3046656
0.3046656
0.3051167
0.3051167
0.3051167
0.3051167
0.3051167
0.3049755
0.3049755
0.3049755
0.3049755
0.3049755
0.3049343
0.3049343
0.3049343
0.3049343
0.3049343
0.3050983
0.3050983
0.3050983
0.3050983
0.3050983
0.3045775
0.3045775
0.3045775
0.3045775
0.3045775
0.3046517
0.3046517
0.3046517
0.3046517
0.3046517
0.3051163
0.3051163
0.3051163
0.3051163
0.3051163
0.3049667
0.3049667
0.3049667
0.3049667
0.3049667
0.3049535
0.3049535
0.3049535
0.3049535
0.3049535
0.3051221
0.3051221
0.3051221
0.3051221
0.3051221
0.3046185
0.3046185
0.3046185
0.3046185
0.3046185
0.3046288
0.3046288
0.3046288
0.3046288
0.3046288
0.3051079
0.3051079
0.3051079
0.3051079
0.3051079
0.3049521
0.3049521
0.3049521
0.3049521
0.3049521
0.3049522
0.3049522
0.3049522
0.3049522
0.3049522
0.3051064
0.3051064
0.3051064
0.3051064
0.3051064
0.304627
0.304627
0.304627
0.304627
0.304627
0.3046193
0.3046193
0.3046193
0.3046193
0.3046193
0.3051189
0.3051189
0.3051189
0.3051189
0.3051189
0.3049501
0.3049501
0.3049501
0.3049501
0.3049501
0.3049669
0.3049669
0.3049669
0.3049669
0.3049669
0.305115
0.305115
0.305115
0.305115
0.305115
0.3046503
0.3046503
0.3046503
0.3046503
0.3046503
0.3045829
0.3045829
0.3045829
0.3045829
0.3045829
0.3051025
0.3051025
0.3051025
0.3051025
0.3051025
0.3049345
0.3049345
0.3049345
0.3049345
0.3049345
0.3049762
0.3049762
0.3049762
0.3049762
0.3049762
0.3051185
0.3051185
0.3051185
0.3051185
0.3051185
0.3046662
0.3046662
0.3046662
0.3046662
0.3046662
0.3044225
0.3044225
0.3044225
0.3044225
0.3044225
0.3049081
0.3049081
0.3049081
0.3049081
0.3049081
0.3047155
0.3047155
0.3047155
0.3047155
0.3047155
0.3050576
0.3050576
0.3050576
0.3050576
0.3050576
0.3052507
0.3052507
0.3052507
0.3052507
0.3052507
0.3048274
0.3048274
0.3048274
0.3048274
0.3048274
0.3045233
0.3045233
0.3045233
0.3045233
0.3045233
0.3043521
0.3043521
0.3043521
0.3043521
0.3043521
0.3047077
0.3047077
0.3047077
0.3047077
0.3047077
0.3050861
0.3050861
0.3050861
0.3050861
0.3050861
0.304877
0.304877
0.304877
0.304877
0.304877
0.3045248
0.3045248
0.3045248
0.3045248
0.3045248
0.3046909
0.3046909
0.3046909
0.3046909
0.3046909
0.3042899
0.3042899
0.3042899
0.3042899
0.3042899
0.3045103
0.3045103
0.3045103
0.3045103
0.3045103
0.3049086
0.3049086
0.3049086
0.3049086
0.3049086
0.3047617
0.3047617
0.3047617
0.3047617
0.3047617
0.3047199
0.3047199
0.3047199
0.3047199
0.3047199
0.3048511
0.3048511
0.3048511
0.3048511
0.3048511
0.3044322
0.3044322
0.3044322
0.3044322
0.3044322
0.3045118
0.3045118
0.3045118
0.3045118
0.3045118
0.3049049
0.3049049
0.3049049
0.3049049
0.3049049
0.3047508
0.3047508
0.3047508
0.3047508
0.3047508
0.3047394
0.3047394
0.3047394
0.3047394
0.3047394
0.3048857
0.3048857
0.3048857
0.3048857
0.3048857
0.304469
0.304469
0.304469
0.304469
0.304469
0.3044929
0.3044929
0.3044929
0.3044929
0.3044929
0.3048918
0.3048918
0.3048918
0.3048918
0.3048918
0.3047379
0.3047379
0.3047379
0.3047379
0.3047379
0.3047379
0.3047379
0.3047379
0.3047379
0.3047379
0.3048909
0.3048909
0.3048909
0.3048909
0.3048909
0.3044957
0.3044957
0.3044957
0.3044957
0.3044957
0.3044714
0.3044714
0.3044714
0.3044714
0.3044714
0.3048878
0.3048878
0.3048878
0.3048878
0.3048878
0.3047414
0.3047414
0.3047414
0.3047414
0.3047414
0.3047516
0.3047516
0.3047516
0.3047516
0.3047516
0.3049035
0.3049035
0.3049035
0.3049035
0.3049035
0.3045162
0.3045162
0.3045162
0.3045162
0.3045162
0.3044386
0.3044386
0.3044386
0.3044386
0.3044386
0.3048575
0.3048575
0.3048575
0.3048575
0.3048575
0.3047255
0.3047255
0.3047255
0.3047255
0.3047255
0.3047622
0.3047622
0.3047622
0.3047622
0.3047622
0.3049094
0.3049094
0.3049094
0.3049094
0.3049094
0.3045104
0.3045104
0.3045104
0.3045104
0.3045104
0.3042904
0.3042904
0.3042904
0.3042904
0.3042904
0.3046913
0.3046913
0.3046913
0.3046913
0.3046913
0.3045204
0.3045204
0.3045204
0.3045204
0.3045204
0.3048693
0.3048693
0.3048693
0.3048693
0.3048693
0.3050788
0.3050788
0.3050788
0.3050788
0.3050788
0.3047004
0.3047004
0.3047004
0.3047004
0.3047004
0.3043448
0.3043448
0.3043448
0.3043448
0.3043448
0.3042172
0.3042172
0.3042172
0.3042172
0.3042172
0.3045819
0.3045819
0.3045819
0.3045819
0.3045819
0.3048946
0.3048946
0.3048946
0.3048946
0.3048946
0.3047089
0.3047089
0.3047089
0.3047089
0.3047089
0.3043654
0.3043654
0.3043654
0.3043654
0.3043654
0.304532
0.304532
0.304532
0.304532
0.304532
0.3041358
0.3041358
0.3041358
0.3041358
0.3041358
0.3043788
0.3043788
0.3043788
0.3043788
0.3043788
0.3047317
0.3047317
0.3047317
0.3047317
0.3047317
0.3045902
0.3045902
0.3045902
0.3045902
0.3045902
0.3045263
0.3045263
0.3045263
0.3045263
0.3045263
0.3046503
0.3046503
0.3046503
0.3046503
0.3046503
0.3042671
0.3042671
0.3042671
0.3042671
0.3042671
0.3043587
0.3043587
0.3043587
0.3043587
0.3043587
0.3047052
0.3047052
0.3047052
0.3047052
0.3047052
0.3045479
0.3045479
0.3045479
0.3045479
0.3045479
0.3045344
0.3045344
0.3045344
0.3045344
0.3045344
0.3046755
0.3046755
0.3046755
0.3046755
0.3046755
0.3042934
0.3042934
0.3042934
0.3042934
0.3042934
0.3043257
0.3043257
0.3043257
0.3043257
0.3043257
0.3046889
0.3046889
0.3046889
0.3046889
0.3046889
0.3045369
0.3045369
0.3045369
0.3045369
0.3045369
0.3045367
0.3045367
0.3045367
0.3045367
0.3045367
0.3046881
0.3046881
0.3046881
0.3046881
0.3046881
0.3043248
0.3043248
0.3043248
0.3043248
0.3043248
0.3042931
0.3042931
0.3042931
0.3042931
0.3042931
0.304675
0.304675
0.304675
0.304675
0.304675
0.3045342
0.3045342
0.3045342
0.3045342
0.3045342
0.3045465
0.3045465
0.3045465
0.3045465
0.3045465
0.3046966
0.3046966
0.3046966
0.3046966
0.3046966
0.3043579
0.3043579
0.3043579
0.3043579
0.3043579
0.3042689
0.3042689
0.3042689
0.3042689
0.3042689
0.3046522
0.3046522
0.3046522
0.3046522
0.3046522
0.3045271
0.3045271
0.3045271
0.3045271
0.3045271
0.3045766
0.3045766
0.3045766
0.3045766
0.3045766
0.3047192
0.3047192
0.3047192
0.3047192
0.3047192
0.3043663
0.3043663
0.3043663
0.3043663
0.3043663
0.3041231
0.3041231
0.3041231
0.3041231
0.3041231
0.3045181
0.3045181
0.3045181
0.3045181
0.3045181
0.3043549
0.3043549
0.3043549
0.3043549
0.3043549
0.3046864
0.3046864
0.3046864
0.3046864
0.3046864
0.3048725
0.3048725
0.3048725
0.3048725
0.3048725
0.3045597
0.3045597
0.3045597
0.3045597
0.3045597
0.304195
0.304195
0.304195
0.304195
0.304195
0.3040703
0.3040703
0.3040703
0.3040703
0.3040703
0.3044434
0.3044434
0.3044434
0.3044434
0.3044434
0.3046996
0.3046996
0.3046996
0.3046996
0.3046996
0.304539
0.304539
0.304539
0.304539
0.304539
0.304206
0.304206
0.304206
0.304206
0.304206
0.3043502
0.3043502
0.3043502
0.3043502
0.3043502
0.3039759
0.3039759
0.3039759
0.3039759
0.3039759
0.3042386
0.3042386
0.3042386
0.3042386
0.3042386
0.3045409
0.3045409
0.3045409
0.3045409
0.3045409
0.3044118
0.3044118
0.3044118
0.3044118
0.3044118
0.3043543
0.3043543
0.3043543
0.3043543
0.3043543
0.304475
0.304475
0.304475
0.304475
0.304475
0.3041156
0.3041156
0.3041156
0.3041156
0.3041156
0.3042063
0.3042063
0.3042063
0.3042063
0.3042063
0.3045271
0.3045271
0.3045271
0.3045271
0.3045271
0.3043865
0.3043865
0.3043865
0.3043865
0.3043865
0.3043835
0.3043835
0.3043835
0.3043835
0.3043835
0.3045208
0.3045208
0.3045208
0.3045208
0.3045208
0.3041646
0.3041646
0.3041646
0.3041646
0.3041646
0.3041877
0.3041877
0.3041877
0.3041877
0.3041877
0.3045264
0.3045264
0.3045264
0.3045264
0.3045264
0.304388
0.304388
0.304388
0.304388
0.304388
0.3043876
0.3043876
0.3043876
0.3043876
0.3043876
0.3045255
0.3045255
0.3045255
0.3045255
0.3045255
0.3041878
0.3041878
0.3041878
0.3041878
0.3041878
0.3041648
0.3041648
0.3041648
0.3041648
0.3041648
0.3045101
0.3045101
0.3045101
0.3045101
0.3045101
0.3043728
0.3043728
0.3043728
0.3043728
0.3043728
0.3043863
0.3043863
0.3043863
0.3043863
0.3043863
0.3045254
0.3045254
0.3045254
0.3045254
0.3045254
0.3042052
0.3042052
0.3042052
0.3042052
0.3042052
0.304113
0.304113
0.304113
0.304113
0.304113
0.3044726
0.3044726
0.3044726
0.3044726
0.3044726
0.3043516
0.3043516
0.3043516
0.3043516
0.3043516
0.3044096
0.3044096
0.3044096
0.3044096
0.3044096
0.3045398
0.3045398
0.3045398
0.3045398
0.3045398
0.304238
0.304238
0.304238
0.304238
0.304238
0.3039749
0.3039749
0.3039749
0.3039749
0.3039749
0.3043476
0.3043476
0.3043476
0.3043476
0.3043476
0.3042035
0.3042035
0.3042035
0.3042035
0.3042035
0.3045367
0.3045367
0.3045367
0.3045367
0.3045367
0.3046995
0.3046995
0.3046995
0.3046995
0.3046995
0.3044432
0.3044432
0.3044432
0.3044432
0.3044432
0.3040667
0.3040667
0.3040667
0.3040667
0.3040667
0.3039499
0.3039499
0.3039499
0.3039499
0.3039499
0.304344
0.304344
0.304344
0.304344
0.304344
0.3045552
0.3045552
0.3045552
0.3045552
0.3045552
0.3044184
0.3044184
0.3044184
0.3044184
0.3044184
0.3041087
0.3041087
0.3041087
0.3041087
0.3041087
0.3042259
0.3042259
0.3042259
0.3042259
0.3042259
0.303872
0.303872
0.303872
0.303872
0.303872
0.3041446
0.3041446
0.3041446
0.3041446
0.3041446
0.3044091
0.3044091
0.3044091
0.3044091
0.3044091
0.3042922
0.3042922
0.3042922
0.3042922
0.3042922
0.3042292
0.3042292
0.3042292
0.3042292
0.3042292
0.3043544
0.3043544
0.3043544
0.3043544
0.3043544
0.3039915
0.3039915
0.3039915
0.3039915
0.3039915
0.3040701
0.3040701
0.3040701
0.3040701
0.3040701
0.304382
0.304382
0.304382
0.304382
0.304382
0.3042527
0.3042527
0.3042527
0.3042527
0.3042527
0.304239
0.304239
0.304239
0.304239
0.304239
0.3043784
0.3043784
0.3043784
0.3043784
0.3043784
0.3040367
0.3040367
0.3040367
0.3040367
0.3040367
0.3040386
0.3040386
0.3040386
0.3040386
0.3040386
0.3043605
0.3043605
0.3043605
0.3043605
0.3043605
0.3042417
0.3042417
0.3042417
0.3042417
0.3042417
0.3042412
0.3042412
0.3042412
0.3042412
0.3042412
0.3043598
0.3043598
0.3043598
0.3043598
0.3043598
0.3040387
0.3040387
0.3040387
0.3040387
0.3040387
0.3040367
0.3040367
0.3040367
0.3040367
0.3040367
0.3043792
0.3043792
0.3043792
0.3043792
0.3043792
0.3042393
0.3042393
0.3042393
0.3042393
0.3042393
0.3042525
0.3042525
0.3042525
0.3042525
0.3042525
0.3043809
0.3043809
0.3043809
0.3043809
0.3043809
0.3040693
0.3040693
0.3040693
0.3040693
0.3040693
0.303991
0.303991
0.303991
0.303991
0.303991
0.3043544
0.3043544
0.3043544
0.3043544
0.3043544
0.3042288
0.3042288
0.3042288
0.3042288
0.3042288
0.3042923
0.3042923
0.3042923
0.3042923
0.3042923
0.3044104
0.3044104
0.3044104
0.3044104
0.3044104
0.3041457
0.3041457
0.3041457
0.3041457
0.3041457
0.3038729
0.3038729
0.3038729
0.3038729
0.3038729
0.3042255
0.3042255
0.3042255
0.3042255
0.3042255
0.3041082
0.3041082
0.3041082
0.3041082
0.3041082
0.3044182
0.3044182
0.3044182
0.3044182
0.3044182
0.3045553
0.3045553
0.3045553
0.3045553
0.3045553
0.3043439
0.3043439
0.3043439
0.3043439
0.3043439
0.3039499
0.3039499
0.3039499
0.3039499
0.3039499
0.3038379
0.3038379
0.3038379
0.3038379
0.3038379
0.3042475
0.3042475
0.3042475
0.3042475
0.3042475
0.304404
0.304404
0.304404
0.304404
0.304404
0.3042819
0.3042819
0.3042819
0.3042819
0.3042819
0.3039998
0.3039998
0.3039998
0.3039998
0.3039998
0.3040946
0.3040946
0.3040946
0.3040946
0.3040946
0.3037583
0.3037583
0.3037583
0.3037583
0.3037583
0.3040257
0.3040257
0.3040257
0.3040257
0.3040257
0.3042685
0.3042685
0.3042685
0.3042685
0.3042685
0.3041593
0.3041593
0.3041593
0.3041593
0.3041593
0.3040996
0.3040996
0.3040996
0.3040996
0.3040996
0.3042288
0.3042288
0.3042288
0.3042288
0.3042288
0.3038864
0.3038864
0.3038864
0.3038864
0.3038864
0.3039486
0.3039486
0.3039486
0.3039486
0.3039486
0.3042539
0.3042539
0.3042539
0.3042539
0.3042539
0.3041359
0.3041359
0.3041359
0.3041359
0.3041359
0.3041253
0.3041253
0.3041253
0.3041253
0.3041253
0.3042709
0.3042709
0.3042709
0.3042709
0.3042709
0.3039458
0.3039458
0.3039458
0.3039458
0.3039458
0.3039322
0.3039322
0.3039322
0.3039322
0.3039322
0.3042478
0.3042478
0.3042478
0.3042478
0.3042478
0.3041411
0.3041411
0.3041411
0.3041411
0.3041411
0.3041408
0.3041408
0.3041408
0.3041408
0.3041408
0.3042472
0.3042472
0.3042472
0.3042472
0.3042472
0.3039326
0.3039326
0.3039326
0.3039326
0.3039326
0.3039462
0.3039462
0.3039462
0.3039462
0.3039462
0.3042831
0.3042831
0.3042831
0.3042831
0.3042831
0.3041366
0.3041366
0.3041366
0.3041366
0.3041366
0.3041357
0.3041357
0.3041357
0.3041357
0.3041357
0.3042534
0.3042534
0.3042534
0.3042534
0.3042534
0.3039479
0.3039479
0.3039479
0.3039479
0.3039479
0.3038882
0.3038882
0.3038882
0.3038882
0.3038882
0.3042313
0.3042313
0.3042313
0.3042313
0.3042313
0.3041014
0.3041014
0.3041014
0.3041014
0.3041014
0.3041616
0.3041616
0.3041616
0.3041616
0.3041616
0.3042717
0.3042717
0.3042717
0.3042717
0.3042717
0.3040278
0.3040278
0.3040278
0.3040278
0.3040278
0.3037618
0.3037618
0.3037618
0.3037618
0.3037618
0.3040967
0.3040967
0.3040967
0.3040967
0.3040967
0.3040012
0.3040012
0.3040012
0.3040012
0.3040012
0.3042838
0.3042838
0.3042838
0.3042838
0.3042838
0.3044043
0.3044043
0.3044043
0.3044043
0.3044043
0.3042478
0.3042478
0.3042478
0.3042478
0.3042478
0.3038415
0.3038415
0.3038415
0.3038415
0.3038415
0.3037348
0.3037348
0.3037348
0.3037348
0.3037348
0.3041509
0.3041509
0.3041509
0.3041509
0.3041509
0.3042783
0.3042783
0.3042783
0.3042783
0.3042783
0.3041728
0.3041728
0.3041728
0.3041728
0.3041728
0.3039336
0.3039336
0.3039336
0.3039336
0.3039336
0.3040056
0.3040056
0.3040056
0.3040056
0.3040056
0.3036878
0.3036878
0.3036878
0.3036878
0.3036878
0.3039464
0.3039464
0.3039464
0.3039464
0.3039464
0.3041781
0.3041781
0.3041781
0.3041781
0.3041781
0.3040686
0.3040686
0.3040686
0.3040686
0.3040686
0.3040166
0.3040166
0.3040166
0.3040166
0.3040166
0.3041472
0.3041472
0.3041472
0.3041472
0.3041472
0.3038129
0.3038129
0.3038129
0.3038129
0.3038129
0.3038573
0.3038573
0.3038573
0.3038573
0.3038573
0.3041479
0.3041479
0.3041479
0.3041479
0.3041479
0.3040375
0.3040375
0.3040375
0.3040375
0.3040375
0.3040317
0.3040317
0.3040317
0.3040317
0.3040317
0.304177
0.304177
0.304177
0.304177
0.304177
0.303841
0.303841
0.303841
0.303841
0.303841
0.3038265
0.3038265
0.3038265
0.3038265
0.3038265
0.3041378
0.3041378
0.3041378
0.3041378
0.3041378
0.3040351
0.3040351
0.3040351
0.3040351
0.3040351
0.3040349
0.3040349
0.3040349
0.3040349
0.3040349
0.3041373
0.3041373
0.3041373
0.3041373
0.3041373
0.3038275
0.3038275
0.3038275
0.3038275
0.3038275
0.3038422
0.3038422
0.3038422
0.3038422
0.3038422
0.3041791
0.3041791
0.3041791
0.3041791
0.3041791
0.3040329
0.3040329
0.3040329
0.3040329
0.3040329
0.3040384
0.3040384
0.3040384
0.3040384
0.3040384
0.3041543
0.3041543
0.3041543
0.3041543
0.3041543
0.3038555
0.3038555
0.3038555
0.3038555
0.3038555
0.3038107
0.3038107
0.3038107
0.3038107
0.3038107
0.3041456
0.3041456
0.3041456
0.3041456
0.3041456
0.3040147
0.3040147
0.3040147
0.3040147
0.3040147
0.3040824
0.3040824
0.3040824
0.3040824
0.3040824
0.304193
0.304193
0.304193
0.304193
0.304193
0.3039602
0.3039602
0.3039602
0.3039602
0.3039602
0.3037026
0.3037026
0.3037026
0.3037026
0.3037026
0.3040194
0.3040194
0.3040194
0.3040194
0.3040194
0.3039428
0.3039428
0.3039428
0.3039428
0.3039428
0.3041948
0.3041948
0.3041948
0.3041948
0.3041948
0.3043006
0.3043006
0.3043006
0.3043006
0.3043006
0.3041733
0.3041733
0.3041733
0.3041733
0.3041733
0.303757
0.303757
0.303757
0.303757
0.303757
0.303638
0.303638
0.303638
0.303638
0.303638
0.304042
0.304042
0.304042
0.304042
0.304042
0.3041614
0.3041614
0.3041614
0.3041614
0.3041614
0.3040692
0.3040692
0.3040692
0.3040692
0.3040692
0.3038492
0.3038492
0.3038492
0.3038492
0.3038492
0.3038996
0.3038996
0.3038996
0.3038996
0.3038996
0.3035992
0.3035992
0.3035992
0.3035992
0.3035992
0.3038425
0.3038425
0.3038425
0.3038425
0.3038425
0.3040777
0.3040777
0.3040777
0.3040777
0.3040777
0.3039608
0.3039608
0.3039608
0.3039608
0.3039608
0.3038963
0.3038963
0.3038963
0.3038963
0.3038963
0.3040223
0.3040223
0.3040223
0.3040223
0.3040223
0.3036964
0.3036964
0.3036964
0.3036964
0.3036964
0.3037398
0.3037398
0.3037398
0.3037398
0.3037398
0.3040306
0.3040306
0.3040306
0.3040306
0.3040306
0.3039208
0.3039208
0.3039208
0.3039208
0.3039208
0.3039184
0.3039184
0.3039184
0.3039184
0.3039184
0.3040602
0.3040602
0.3040602
0.3040602
0.3040602
0.3037267
0.3037267
0.3037267
0.3037267
0.3037267
0.3037181
0.3037181
0.3037181
0.3037181
0.3037181
0.3040228
0.3040228
0.3040228
0.3040228
0.3040228
0.3039215
0.3039215
0.3039215
0.3039215
0.3039215
0.3039216
0.3039216
0.3039216
0.3039216
0.3039216
0.3040226
0.3040226
0.3040226
0.3040226
0.3040226
0.3037206
0.3037206
0.3037206
0.3037206
0.3037206
0.303725
0.303725
0.303725
0.303725
0.303725
0.3040595
0.3040595
0.3040595
0.3040595
0.3040595
0.3039172
0.3039172
0.3039172
0.3039172
0.3039172
0.3039191
0.3039191
0.3039191
0.3039191
0.3039191
0.3040279
0.3040279
0.3040279
0.3040279
0.3040279
0.3037489
0.3037489
0.3037489
0.3037489
0.3037489
0.3037058
0.3037058
0.3037058
0.3037058
0.3037058
0.3040319
0.3040319
0.3040319
0.3040319
0.3040319
0.3039054
0.3039054
0.3039054
0.3039054
0.3039054
0.3039509
0.3039509
0.3039509
0.3039509
0.3039509
0.3040677
0.3040677
0.3040677
0.3040677
0.3040677
0.3038314
0.3038314
0.3038314
0.3038314
0.3038314
0.3035876
0.3035876
0.3035876
0.3035876
0.3035876
0.3038866
0.3038866
0.3038866
0.3038866
0.3038866
0.3038348
0.3038348
0.3038348
0.3038348
0.3038348
0.3040416
0.3040416
0.3040416
0.3040416
0.3040416
0.3041339
0.3041339
0.3041339
0.3041339
0.3041339
0.3040146
0.3040146
0.3040146
0.3040146
0.3040146
0.3036105
0.3036105
0.3036105
0.3036105
0.3036105
0.3035186
0.3035186
0.3035186
0.3035186
0.3035186
0.3039007
0.3039007
0.3039007
0.3039007
0.3039007
0.3040249
0.3040249
0.3040249
0.3040249
0.3040249
0.3039437
0.3039437
0.3039437
0.3039437
0.3039437
0.3037533
0.3037533
0.3037533
0.3037533
0.3037533
0.3037918
0.3037918
0.3037918
0.3037918
0.3037918
0.3035105
0.3035105
0.3035105
0.3035105
0.3035105
0.3037204
0.3037204
0.3037204
0.3037204
0.3037204
0.3039671
0.3039671
0.3039671
0.3039671
0.3039671
0.3038499
0.3038499
0.3038499
0.3038499
0.3038499
0.3038094
0.3038094
0.3038094
0.3038094
0.3038094
0.3039208
0.3039208
0.3039208
0.3039208
0.3039208
0.3036102
0.3036102
0.3036102
0.3036102
0.3036102
0.3036521
0.3036521
0.3036521
0.3036521
0.3036521
0.3039384
0.3039384
0.3039384
0.3039384
0.3039384
0.3038269
0.3038269
0.3038269
0.3038269
0.3038269
0.3038343
0.3038343
0.3038343
0.3038343
0.3038343
0.3039655
0.3039655
0.3039655
0.3039655
0.3039655
0.3036443
0.3036443
0.3036443
0.3036443
0.3036443
0.3036491
0.3036491
0.3036491
0.3036491
0.3036491
0.3039407
0.3039407
0.3039407
0.3039407
0.3039407
0.3038374
0.3038374
0.3038374
0.3038374
0.3038374
0.3038375
0.3038375
0.3038375
0.3038375
0.3038375
0.3039396
0.3039396
0.3039396
0.3039396
0.3039396
0.3036486
0.3036486
0.3036486
0.3036486
0.3036486
0.3036433
0.3036433
0.3036433
0.3036433
0.3036433
0.3039533
0.3039533
0.3039533
0.3039533
0.3039533
0.3038217
0.3038217
0.3038217
0.3038217
0.3038217
0.3038265
0.3038265
0.3038265
0.3038265
0.3038265
0.3039365
0.3039365
0.3039365
0.3039365
0.3039365
0.3036512
0.3036512
0.3036512
0.3036512
0.3036512
0.3036104
0.3036104
0.3036104
0.3036104
0.3036104
0.3039219
0.3039219
0.3039219
0.3039219
0.3039219
0.3038067
0.3038067
0.3038067
0.3038067
0.3038067
0.3038481
0.3038481
0.3038481
0.3038481
0.3038481
0.3039687
0.3039687
0.3039687
0.3039687
0.3039687
0.3037211
0.3037211
0.3037211
0.3037211
0.3037211
0.3035077
0.3035077
0.3035077
0.3035077
0.3035077
0.3037891
0.3037891
0.3037891
0.3037891
0.3037891
0.3037512
0.3037512
0.3037512
0.3037512
0.3037512
0.3039423
0.3039423
0.3039423
0.3039423
0.3039423
0.3040217
0.3040217
0.3040217
0.3040217
0.3040217
0.3038975
0.3038975
0.3038975
0.3038975
0.3038975
0.3035158
0.3035158
0.3035158
0.3035158
0.3035158
0.3034311
0.3034311
0.3034311
0.3034311
0.3034311
0.3037892
0.3037892
0.3037892
0.3037892
0.3037892
0.3039357
0.3039357
0.3039357
0.3039357
0.3039357
0.3038604
0.3038604
0.3038604
0.3038604
0.3038604
0.3036971
0.3036971
0.3036971
0.3036971
0.3036971
0.3037416
0.3037416
0.3037416
0.3037416
0.3037416
0.3034766
0.3034766
0.3034766
0.3034766
0.3034766
0.303627
0.303627
0.303627
0.303627
0.303627
0.3038666
0.3038666
0.3038666
0.3038666
0.3038666
0.3037745
0.3037745
0.3037745
0.3037745
0.3037745
0.3037442
0.3037442
0.3037442
0.3037442
0.3037442
0.3038487
0.3038487
0.3038487
0.3038487
0.3038487
0.3035483
0.3035483
0.3035483
0.3035483
0.3035483
0.3035712
0.3035712
0.3035712
0.3035712
0.3035712
0.303836
0.303836
0.303836
0.303836
0.303836
0.3037421
0.3037421
0.3037421
0.3037421
0.3037421
0.3037315
0.3037315
0.3037315
0.3037315
0.3037315
0.3038358
0.3038358
0.3038358
0.3038358
0.3038358
0.3035533
0.3035533
0.3035533
0.3035533
0.3035533
0.303572
0.303572
0.303572
0.303572
0.303572
0.3038502
0.3038502
0.3038502
0.3038502
0.3038502
0.3037449
0.3037449
0.3037449
0.3037449
0.3037449
0.3037447
0.3037447
0.3037447
0.3037447
0.3037447
0.3038494
0.3038494
0.3038494
0.3038494
0.3038494
0.3035717
0.3035717
0.3035717
0.3035717
0.3035717
0.3035531
0.3035531
0.3035531
0.3035531
0.3035531
0.3038371
0.3038371
0.3038371
0.3038371
0.3038371
0.3037324
0.3037324
0.3037324
0.3037324
0.3037324
0.3037422
0.3037422
0.3037422
0.3037422
0.3037422
0.3038357
0.3038357
0.3038357
0.3038357
0.3038357
0.3035708
0.3035708
0.3035708
0.3035708
0.3035708
0.3035469
0.3035469
0.3035469
0.3035469
0.3035469
0.3038486
0.3038486
0.3038486
0.3038486
0.3038486
0.3037434
0.3037434
0.3037434
0.3037434
0.3037434
0.3037748
0.3037748
0.3037748
0.3037748
0.3037748
0.30387
0.30387
0.30387
0.30387
0.30387
0.3036292
0.3036292
0.3036292
0.3036292
0.3036292
0.3034757
0.3034757
0.3034757
0.3034757
0.3034757
0.3037403
0.3037403
0.3037403
0.3037403
0.3037403
0.3036965
0.3036965
0.3036965
0.3036965
0.3036965
0.3038606
0.3038606
0.3038606
0.3038606
0.3038606
0.3039358
0.3039358
0.3039358
0.3039358
0.3039358
0.3037891
0.3037891
0.3037891
0.3037891
0.3037891
0.3034312
0.3034312
0.3034312
0.3034312
0.3034312
0.3033561
0.3033561
0.3033561
0.3033561
0.3033561
0.3036924
0.3036924
0.3036924
0.3036924
0.3036924
0.3038331
0.3038331
0.3038331
0.3038331
0.3038331
0.3037593
0.3037593
0.3037593
0.3037593
0.3037593
0.3036242
0.3036242
0.3036242
0.3036242
0.3036242
0.3036942
0.3036942
0.3036942
0.3036942
0.3036942
0.3034484
0.3034484
0.3034484
0.3034484
0.3034484
0.3035226
0.3035226
0.3035226
0.3035226
0.3035226
0.303723
0.303723
0.303723
0.303723
0.303723
0.3036738
0.3036738
0.3036738
0.3036738
0.3036738
0.3036707
0.3036707
0.3036707
0.3036707
0.3036707
0.3037857
0.3037857
0.3037857
0.3037857
0.3037857
0.3035157
0.3035157
0.3035157
0.3035157
0.3035157
0.3034952
0.3034952
0.3034952
0.3034952
0.3034952
0.3037036
0.3037036
0.3037036