/*--------------------------------*- C++ -*----------------------------------*\
| =========                 |                                                 |
| \\      /  F ield         | OpenFOAM: The Open Source CFD Toolbox           |
|  \\    /   O peration     | Version:  4.0                                   |
|   \\  /    A nd           | Web:      www.OpenFOAM.org                      |
|    \\/     M anipulation  |                                                 |
\*---------------------------------------------------------------------------*/
FoamFile
{
    version     2.0;
    format      ascii;
    class       volScalarField;
    location    "60/electrolyte";
    object      etaActC;
}
// * * * * * * * * * * * * * * * * * * * * * * * * * * * * * * * * * * * * * //

dimensions      [1 2 -3 0 0 -1 0];

internalField   nonuniform List<scalar> 
4840
(
0.6178222
0.6178222
0.6178222
0.6178222
0.6178222
0.6189438
0.6189438
0.6189438
0.6189438
0.6189438
0.6200929
0.6200929
0.6200929
0.6200929
0.6200929
0.6201872
0.6201872
0.6201872
0.6201872
0.6201872
0.6201378
0.6201378
0.6201378
0.6201378
0.6201378
0.6202096
0.6202096
0.6202096
0.6202096
0.6202096
0.6190488
0.6190488
0.6190488
0.6190488
0.6190488
0.6191206
0.6191206
0.6191206
0.6191206
0.6191206
0.6202231
0.6202231
0.6202231
0.6202231
0.6202231
0.6203079
0.6203079
0.6203079
0.6203079
0.6203079
0.6205011
0.6205011
0.6205011
0.6205011
0.6205011
0.62041
0.62041
0.62041
0.62041
0.62041
0.6192809
0.6192809
0.6192809
0.6192809
0.6192809
0.6193038
0.6193038
0.6193038
0.6193038
0.6193038
0.620418
0.620418
0.620418
0.620418
0.620418
0.6205554
0.6205554
0.6205554
0.6205554
0.6205554
0.6205528
0.6205528
0.6205528
0.6205528
0.6205528
0.6204643
0.6204643
0.6204643
0.6204643
0.6204643
0.6193423
0.6193423
0.6193423
0.6193423
0.6193423
0.6193514
0.6193514
0.6193514
0.6193514
0.6193514
0.6204693
0.6204693
0.6204693
0.6204693
0.6204693
0.6205536
0.6205536
0.6205536
0.6205536
0.6205536
0.6205529
0.6205529
0.6205529
0.6205529
0.6205529
0.6204661
0.6204661
0.6204661
0.6204661
0.6204661
0.619349
0.619349
0.619349
0.619349
0.619349
0.6193016
0.6193016
0.6193016
0.6193016
0.6193016
0.6204241
0.6204241
0.6204241
0.6204241
0.6204241
0.62051
0.62051
0.62051
0.62051
0.62051
0.6205114
0.6205114
0.6205114
0.6205114
0.6205114
0.6204237
0.6204237
0.6204237
0.6204237
0.6204237
0.6191537
0.6191537
0.6191537
0.6191537
0.6191537
0.6191352
0.6191352
0.6191352
0.6191352
0.6191352
0.6202647
0.6202647
0.6202647
0.6202647
0.6202647
0.6203535
0.6203535
0.6203535
0.6203535
0.6203535
0.6203578
0.6203578
0.6203578
0.6203578
0.6203578
0.6202762
0.6202762
0.6202762
0.6202762
0.6202762
0.6191739
0.6191739
0.6191739
0.6191739
0.6191739
0.6191064
0.6191064
0.6191064
0.6191064
0.6191064
0.6202669
0.6202669
0.6202669
0.6202669
0.6202669
0.6203683
0.6203683
0.6203683
0.6203683
0.6203683
0.6205663
0.6205663
0.6205663
0.6205663
0.6205663
0.6204572
0.6204572
0.6204572
0.6204572
0.6204572
0.6192893
0.6192893
0.6192893
0.6192893
0.6192893
0.6181484
0.6181484
0.6181484
0.6181484
0.6181484
0.6181048
0.6181048
0.6181048
0.6181048
0.6181048
0.6190716
0.6190716
0.6190716
0.6190716
0.6190716
0.6200806
0.6200806
0.6200806
0.6200806
0.6200806
0.6202067
0.6202067
0.6202067
0.6202067
0.6202067
0.6201603
0.6201603
0.6201603
0.6201603
0.6201603
0.6199937
0.6199937
0.6199937
0.6199937
0.6199937
0.6189687
0.6189687
0.6189687
0.6189687
0.6189687
0.6190538
0.6190538
0.6190538
0.6190538
0.6190538
0.6200266
0.6200266
0.6200266
0.6200266
0.6200266
0.6201625
0.6201625
0.6201625
0.6201625
0.6201625
0.620155
0.620155
0.620155
0.620155
0.620155
0.6199609
0.6199609
0.6199609
0.6199609
0.6199609
0.6189591
0.6189591
0.6189591
0.6189591
0.6189591
0.6189947
0.6189947
0.6189947
0.6189947
0.6189947
0.619978
0.619978
0.619978
0.619978
0.619978
0.6201177
0.6201177
0.6201177
0.6201177
0.6201177
0.6199589
0.6199589
0.6199589
0.6199589
0.6199589
0.6198115
0.6198115
0.6198115
0.6198115
0.6198115
0.618819
0.618819
0.618819
0.618819
0.618819
0.6188315
0.6188315
0.6188315
0.6188315
0.6188315
0.6198204
0.6198204
0.6198204
0.6198204
0.6198204
0.6199624
0.6199624
0.6199624
0.6199624
0.6199624
0.6199603
0.6199603
0.6199603
0.6199603
0.6199603
0.6198153
0.6198153
0.6198153
0.6198153
0.6198153
0.6188283
0.6188283
0.6188283
0.6188283
0.6188283
0.6188244
0.6188244
0.6188244
0.6188244
0.6188244
0.6199723
0.6199723
0.6199723
0.6199723
0.6199723
0.6201157
0.6201157
0.6201157
0.6201157
0.6201157
0.6201161
0.6201161
0.6201161
0.6201161
0.6201161
0.6199723
0.6199723
0.6199723
0.6199723
0.6199723
0.6189902
0.6189902
0.6189902
0.6189902
0.6189902
0.6190055
0.6190055
0.6190055
0.6190055
0.6190055
0.6200099
0.6200099
0.6200099
0.6200099
0.6200099
0.6201572
0.6201572
0.6201572
0.6201572
0.6201572
0.6201618
0.6201618
0.6201618
0.6201618
0.6201618
0.6200218
0.6200218
0.6200218
0.6200218
0.6200218
0.6190509
0.6190509
0.6190509
0.6190509
0.6190509
0.6189741
0.6189741
0.6189741
0.6189741
0.6189741
0.6200011
0.6200011
0.6200011
0.6200011
0.6200011
0.6201629
0.6201629
0.6201629
0.6201629
0.6201629
0.6202035
0.6202035
0.6202035
0.6202035
0.6202035
0.6200256
0.6200256
0.6200256
0.6200256
0.6200256
0.6190148
0.6190148
0.6190148
0.6190148
0.6190148
0.6181041
0.6181041
0.6181041
0.6181041
0.6181041
0.6178466
0.6178466
0.6178466
0.6178466
0.6178466
0.6186478
0.6186478
0.6186478
0.6186478
0.6186478
0.6195102
0.6195102
0.6195102
0.6195102
0.6195102
0.6196876
0.6196876
0.6196876
0.6196876
0.6196876
0.6196389
0.6196389
0.6196389
0.6196389
0.6196389
0.6194158
0.6194158
0.6194158
0.6194158
0.6194158
0.6184556
0.6184556
0.6184556
0.6184556
0.6184556
0.6185447
0.6185447
0.6185447
0.6185447
0.6185447
0.6194631
0.6194631
0.6194631
0.6194631
0.6194631
0.6196474
0.6196474
0.6196474
0.6196474
0.6196474
0.6196355
0.6196355
0.6196355
0.6196355
0.6196355
0.6194292
0.6194292
0.6194292
0.6194292
0.6194292
0.6186371
0.6186371
0.6186371
0.6186371
0.6186371
0.6186788
0.6186788
0.6186788
0.6186788
0.6186788
0.619607
0.619607
0.619607
0.619607
0.619607
0.6197973
0.6197973
0.6197973
0.6197973
0.6197973
0.6197898
0.6197898
0.6197898
0.6197898
0.6197898
0.6196304
0.6196304
0.6196304
0.6196304
0.6196304
0.6186937
0.6186937
0.6186937
0.6186937
0.6186937
0.6187086
0.6187086
0.6187086
0.6187086
0.6187086
0.6196435
0.6196435
0.6196435
0.6196435
0.6196435
0.6198369
0.6198369
0.6198369
0.6198369
0.6198369
0.6198336
0.6198336
0.6198336
0.6198336
0.6198336
0.6196344
0.6196344
0.6196344
0.6196344
0.6196344
0.6187027
0.6187027
0.6187027
0.6187027
0.6187027
0.6186995
0.6186995
0.6186995
0.6186995
0.6186995
0.6196401
0.6196401
0.6196401
0.6196401
0.6196401
0.6197938
0.6197938
0.6197938
0.6197938
0.6197938
0.6197939
0.6197939
0.6197939
0.6197939
0.6197939
0.6195978
0.6195978
0.6195978
0.6195978
0.6195978
0.6186724
0.6186724
0.6186724
0.6186724
0.6186724
0.6186423
0.6186423
0.6186423
0.6186423
0.6186423
0.6194379
0.6194379
0.6194379
0.6194379
0.6194379
0.6196385
0.6196385
0.6196385
0.6196385
0.6196385
0.6196444
0.6196444
0.6196444
0.6196444
0.6196444
0.6194543
0.6194543
0.6194543
0.6194543
0.6194543
0.6185391
0.6185391
0.6185391
0.6185391
0.6185391
0.6184608
0.6184608
0.6184608
0.6184608
0.6184608
0.6194237
0.6194237
0.6194237
0.6194237
0.6194237
0.6196396
0.6196396
0.6196396
0.6196396
0.6196396
0.6196786
0.6196786
0.6196786
0.6196786
0.6196786
0.6194896
0.6194896
0.6194896
0.6194896
0.6194896
0.6186269
0.6186269
0.6186269
0.6186269
0.6186269
0.6178433
0.6178433
0.6178433
0.6178433
0.6178433
0.6175442
0.6175442
0.6175442
0.6175442
0.6175442
0.6182166
0.6182166
0.6182166
0.6182166
0.6182166
0.6192916
0.6192916
0.6192916
0.6192916
0.6192916
0.6195964
0.6195964
0.6195964
0.6195964
0.6195964
0.6195531
0.6195531
0.6195531
0.6195531
0.6195531
0.6192535
0.6192535
0.6192535
0.6192535
0.6192535
0.6183548
0.6183548
0.6183548
0.6183548
0.6183548
0.6184164
0.6184164
0.6184164
0.6184164
0.6184164
0.6193238
0.6193238
0.6193238
0.6193238
0.6193238
0.6195668
0.6195668
0.6195668
0.6195668
0.6195668
0.6195499
0.6195499
0.6195499
0.6195499
0.6195499
0.6192708
0.6192708
0.6192708
0.6192708
0.6192708
0.6183758
0.6183758
0.6183758
0.6183758
0.6183758
0.6183641
0.6183641
0.6183641
0.6183641
0.6183641
0.6192677
0.6192677
0.6192677
0.6192677
0.6192677
0.6195206
0.6195206
0.6195206
0.6195206
0.6195206
0.6195108
0.6195108
0.6195108
0.6195108
0.6195108
0.619239
0.619239
0.619239
0.619239
0.619239
0.6181915
0.6181915
0.6181915
0.6181915
0.6181915
0.6182044
0.6182044
0.6182044
0.6182044
0.6182044
0.6191058
0.6191058
0.6191058
0.6191058
0.6191058
0.6193645
0.6193645
0.6193645
0.6193645
0.6193645
0.6193601
0.6193601
0.6193601
0.6193601
0.6193601
0.619093
0.619093
0.619093
0.619093
0.619093
0.6181961
0.6181961
0.6181961
0.6181961
0.6181961
0.618197
0.618197
0.618197
0.618197
0.618197
0.6190963
0.6190963
0.6190963
0.6190963
0.6190963
0.6193609
0.6193609
0.6193609
0.6193609
0.6193609
0.6195151
0.6195151
0.6195151
0.6195151
0.6195151
0.6192552
0.6192552
0.6192552
0.6192552
0.6192552
0.6183557
0.6183557
0.6183557
0.6183557
0.6183557
0.6183389
0.6183389
0.6183389
0.6183389
0.6183389
0.6192382
0.6192382
0.6192382
0.6192382
0.6192382
0.619553
0.619553
0.619553
0.619553
0.619553
0.6195616
0.6195616
0.6195616
0.6195616
0.6195616
0.6193114
0.6193114
0.6193114
0.6193114
0.6193114
0.6184083
0.6184083
0.6184083
0.6184083
0.6184083
0.6183597
0.6183597
0.6183597
0.6183597
0.6183597
0.6192619
0.6192619
0.6192619
0.6192619
0.6192619
0.6195523
0.6195523
0.6195523
0.6195523
0.6195523
0.6195827
0.6195827
0.6195827
0.6195827
0.6195827
0.6193069
0.6193069
0.6193069
0.6193069
0.6193069
0.6182325
0.6182325
0.6182325
0.6182325
0.6182325
0.6175386
0.6175386
0.6175386
0.6175386
0.6175386
0.6172729
0.6172729
0.6172729
0.6172729
0.6172729
0.6178603
0.6178603
0.6178603
0.6178603
0.6178603
0.618987
0.618987
0.618987
0.618987
0.618987
0.6193222
0.6193222
0.6193222
0.6193222
0.6193222
0.6191329
0.6191329
0.6191329
0.6191329
0.6191329
0.6187876
0.6187876
0.6187876
0.6187876
0.6187876
0.6179008
0.6179008
0.6179008
0.6179008
0.6179008
0.6179459
0.6179459
0.6179459
0.6179459
0.6179459
0.6188712
0.6188712
0.6188712
0.6188712
0.6188712
0.6191475
0.6191475
0.6191475
0.6191475
0.6191475
0.6191259
0.6191259
0.6191259
0.6191259
0.6191259
0.6188003
0.6188003
0.6188003
0.6188003
0.6188003
0.6179097
0.6179097
0.6179097
0.6179097
0.6179097
0.6179342
0.6179342
0.6179342
0.6179342
0.6179342
0.6190067
0.6190067
0.6190067
0.6190067
0.6190067
0.619299
0.619299
0.619299
0.619299
0.619299
0.6192876
0.6192876
0.6192876
0.6192876
0.6192876
0.6189746
0.6189746
0.6189746
0.6189746
0.6189746
0.6180717
0.6180717
0.6180717
0.6180717
0.6180717
0.6181255
0.6181255
0.6181255
0.6181255
0.6181255
0.619032
0.619032
0.619032
0.619032
0.619032
0.6193352
0.6193352
0.6193352
0.6193352
0.6193352
0.6193301
0.6193301
0.6193301
0.6193301
0.6193301
0.6190191
0.6190191
0.6190191
0.6190191
0.6190191
0.6181179
0.6181179
0.6181179
0.6181179
0.6181179
0.6181221
0.6181221
0.6181221
0.6181221
0.6181221
0.6190301
0.6190301
0.6190301
0.6190301
0.6190301
0.6193354
0.6193354
0.6193354
0.6193354
0.6193354
0.619337
0.619337
0.619337
0.619337
0.619337
0.6189854
0.6189854
0.6189854
0.6189854
0.6189854
0.6180722
0.6180722
0.6180722
0.6180722
0.6180722
0.6180629
0.6180629
0.6180629
0.6180629
0.6180629
0.6189596
0.6189596
0.6189596
0.6189596
0.6189596
0.6192777
0.6192777
0.6192777
0.6192777
0.6192777
0.6190943
0.6190943
0.6190943
0.6190943
0.6190943
0.6188044
0.6188044
0.6188044
0.6188044
0.6188044
0.6178842
0.6178842
0.6178842
0.6178842
0.6178842
0.6178536
0.6178536
0.6178536
0.6178536
0.6178536
0.6187437
0.6187437
0.6187437
0.6187437
0.6187437
0.6189022
0.6189022
0.6189022
0.6189022
0.6189022
0.6189238
0.6189238
0.6189238
0.6189238
0.6189238
0.6185744
0.6185744
0.6185744
0.6185744
0.6185744
0.6174512
0.6174512
0.6174512
0.6174512
0.6174512
0.6168873
0.6168873
0.6168873
0.6168873
0.6168873
0.6166038
0.6166038
0.6166038
0.6166038
0.6166038
0.6171373
0.6171373
0.6171373
0.6171373
0.6171373
0.6182933
0.6182933
0.6182933
0.6182933
0.6182933
0.6186984
0.6186984
0.6186984
0.6186984
0.6186984
0.6186709
0.6186709
0.6186709
0.6186709
0.6186709
0.6184507
0.6184507
0.6184507
0.6184507
0.6184507
0.6175619
0.6175619
0.6175619
0.6175619
0.6175619
0.6175997
0.6175997
0.6175997
0.6175997
0.6175997
0.618559
0.618559
0.618559
0.618559
0.618559
0.6188664
0.6188664
0.6188664
0.6188664
0.6188664
0.61903
0.61903
0.61903
0.61903
0.61903
0.6186724
0.6186724
0.6186724
0.6186724
0.6186724
0.6177619
0.6177619
0.6177619
0.6177619
0.6177619
0.6177828
0.6177828
0.6177828
0.6177828
0.6177828
0.6187237
0.6187237
0.6187237
0.6187237
0.6187237
0.6191017
0.6191017
0.6191017
0.6191017
0.6191017
0.6190902
0.6190902
0.6190902
0.6190902
0.6190902
0.6187454
0.6187454
0.6187454
0.6187454
0.6187454
0.6178213
0.6178213
0.6178213
0.6178213
0.6178213
0.6178311
0.6178311
0.6178311
0.6178311
0.6178311
0.6187561
0.6187561
0.6187561
0.6187561
0.6187561
0.6190933
0.6190933
0.6190933
0.6190933
0.6190933
0.6190877
0.6190877
0.6190877
0.6190877
0.6190877
0.6187421
0.6187421
0.6187421
0.6187421
0.6187421
0.6178232
0.6178232
0.6178232
0.6178232
0.6178232
0.6177874
0.6177874
0.6177874
0.6177874
0.6177874
0.618717
0.618717
0.618717
0.618717
0.618717
0.6190533
0.6190533
0.6190533
0.6190533
0.6190533
0.6190537
0.6190537
0.6190537
0.6190537
0.6190537
0.6187191
0.6187191
0.6187191
0.6187191
0.6187191
0.6176413
0.6176413
0.6176413
0.6176413
0.6176413
0.6176368
0.6176368
0.6176368
0.6176368
0.6176368
0.6185528
0.6185528
0.6185528
0.6185528
0.6185528
0.618902
0.618902
0.618902
0.618902
0.618902
0.6189159
0.6189159
0.6189159
0.6189159
0.6189159
0.6186062
0.6186062
0.6186062
0.6186062
0.6186062
0.6176516
0.6176516
0.6176516
0.6176516
0.6176516
0.6176294
0.6176294
0.6176294
0.6176294
0.6176294
0.6185223
0.6185223
0.6185223
0.6185223
0.6185223
0.6188916
0.6188916
0.6188916
0.6188916
0.6188916
0.6190429
0.6190429
0.6190429
0.6190429
0.6190429
0.6186207
0.6186207
0.6186207
0.6186207
0.6186207
0.6174648
0.6174648
0.6174648
0.6174648
0.6174648
0.6169548
0.6169548
0.6169548
0.6169548
0.6169548
0.6167392
0.6167392
0.6167392
0.6167392
0.6167392
0.617292
0.617292
0.617292
0.617292
0.617292
0.6184951
0.6184951
0.6184951
0.6184951
0.6184951
0.6189475
0.6189475
0.6189475
0.6189475
0.6189475
0.6189279
0.6189279
0.6189279
0.6189279
0.6189279
0.6185231
0.6185231
0.6185231
0.6185231
0.6185231
0.6176135
0.6176135
0.6176135
0.6176135
0.6176135
0.6176556
0.6176556
0.6176556
0.6176556
0.6176556
0.6186434
0.6186434
0.6186434
0.6186434
0.6186434
0.6189743
0.6189743
0.6189743
0.6189743
0.6189743
0.6189476
0.6189476
0.6189476
0.6189476
0.6189476
0.618527
0.618527
0.618527
0.618527
0.618527
0.6175815
0.6175815
0.6175815
0.6175815
0.6175815
0.6175995
0.6175995
0.6175995
0.6175995
0.6175995
0.6185694
0.6185694
0.6185694
0.6185694
0.6185694
0.6189213
0.6189213
0.6189213
0.6189213
0.6189213
0.6187682
0.6187682
0.6187682
0.6187682
0.6187682
0.6184001
0.6184001
0.6184001
0.6184001
0.6184001
0.6174461
0.6174461
0.6174461
0.6174461
0.6174461
0.6174555
0.6174555
0.6174555
0.6174555
0.6174555
0.6184132
0.6184132
0.6184132
0.6184132
0.6184132
0.6187728
0.6187728
0.6187728
0.6187728
0.6187728
0.6187669
0.6187669
0.6187669
0.6187669
0.6187669
0.6183999
0.6183999
0.6183999
0.6183999
0.6183999
0.6174484
0.6174484
0.6174484
0.6174484
0.6174484
0.6174563
0.6174563
0.6174563
0.6174563
0.6174563
0.6185578
0.6185578
0.6185578
0.6185578
0.6185578
0.6189173
0.6189173
0.6189173
0.6189173
0.6189173
0.6189163
0.6189163
0.6189163
0.6189163
0.6189163
0.6185554
0.6185554
0.6185554
0.6185554
0.6185554
0.6175916
0.6175916
0.6175916
0.6175916
0.6175916
0.617633
0.617633
0.617633
0.617633
0.617633
0.618585
0.618585
0.618585
0.618585
0.618585
0.6189542
0.6189542
0.6189542
0.6189542
0.6189542
0.6189693
0.6189693
0.6189693
0.6189693
0.6189693
0.6186295
0.6186295
0.6186295
0.6186295
0.6186295
0.6176468
0.6176468
0.6176468
0.6176468
0.6176468
0.6176209
0.6176209
0.6176209
0.6176209
0.6176209
0.6185343
0.6185343
0.6185343
0.6185343
0.6185343
0.618927
0.618927
0.618927
0.618927
0.618927
0.6189285
0.6189285
0.6189285
0.6189285
0.6189285
0.6184167
0.6184167
0.6184167
0.6184167
0.6184167
0.6172155
0.6172155
0.6172155
0.6172155
0.6172155
0.6167296
0.6167296
0.6167296
0.6167296
0.6167296
0.6165382
0.6165382
0.6165382
0.6165382
0.6165382
0.6170439
0.6170439
0.6170439
0.6170439
0.6170439
0.6181527
0.6181527
0.6181527
0.6181527
0.6181527
0.6186389
0.6186389
0.6186389
0.6186389
0.6186389
0.6186286
0.6186286
0.6186286
0.6186286
0.6186286
0.6182135
0.6182135
0.6182135
0.6182135
0.6182135
0.6172683
0.6172683
0.6172683
0.6172683
0.6172683
0.6173043
0.6173043
0.6173043
0.6173043
0.6173043
0.6183193
0.6183193
0.6183193
0.6183193
0.6183193
0.6186737
0.6186737
0.6186737
0.6186737
0.6186737
0.6186486
0.6186486
0.6186486
0.6186486
0.6186486
0.618252
0.618252
0.618252
0.618252
0.618252
0.6174188
0.6174188
0.6174188
0.6174188
0.6174188
0.617435
0.617435
0.617435
0.617435
0.617435
0.6184341
0.6184341
0.6184341
0.6184341
0.6184341
0.6188058
0.6188058
0.6188058
0.6188058
0.6188058
0.6187952
0.6187952
0.6187952
0.6187952
0.6187952
0.6184487
0.6184487
0.6184487
0.6184487
0.6184487
0.6174656
0.6174656
0.6174656
0.6174656
0.6174656
0.6174751
0.6174751
0.6174751
0.6174751
0.6174751
0.6184668
0.6184668
0.6184668
0.6184668
0.6184668
0.6188423
0.6188423
0.6188423
0.6188423
0.6188423
0.6188361
0.6188361
0.6188361
0.6188361
0.6188361
0.6184515
0.6184515
0.6184515
0.6184515
0.6184515
0.6174662
0.6174662
0.6174662
0.6174662
0.6174662
0.6174745
0.6174745
0.6174745
0.6174745
0.6174745
0.6184644
0.6184644
0.6184644
0.6184644
0.6184644
0.6188018
0.6188018
0.6188018
0.6188018
0.6188018
0.6187995
0.6187995
0.6187995
0.6187995
0.6187995
0.6184185
0.6184185
0.6184185
0.6184185
0.6184185
0.6174259
0.6174259
0.6174259
0.6174259
0.6174259
0.6174278
0.6174278
0.6174278
0.6174278
0.6174278
0.6182676
0.6182676
0.6182676
0.6182676
0.6182676
0.6186548
0.6186548
0.6186548
0.6186548
0.6186548
0.6186676
0.6186676
0.6186676
0.6186676
0.6186676
0.6183039
0.6183039
0.6183039
0.6183039
0.6183039
0.6172945
0.6172945
0.6172945
0.6172945
0.6172945
0.617275
0.617275
0.617275
0.617275
0.617275
0.6182238
0.6182238
0.6182238
0.6182238
0.6182238
0.6186261
0.6186261
0.6186261
0.6186261
0.6186261
0.6186172
0.6186172
0.6186172
0.6186172
0.6186172
0.618113
0.618113
0.618113
0.618113
0.618113
0.6170064
0.6170064
0.6170064
0.6170064
0.6170064
0.616527
0.616527
0.616527
0.616527
0.616527
0.616359
0.616359
0.616359
0.616359
0.616359
0.6168684
0.6168684
0.6168684
0.6168684
0.6168684
0.6181619
0.6181619
0.6181619
0.6181619
0.6181619
0.6187174
0.6187174
0.6187174
0.6187174
0.6187174
0.6187159
0.6187159
0.6187159
0.6187159
0.6187159
0.6182926
0.6182926
0.6182926
0.6182926
0.6182926
0.6173132
0.6173132
0.6173132
0.6173132
0.6173132
0.6173434
0.6173434
0.6173434
0.6173434
0.6173434
0.6183795
0.6183795
0.6183795
0.6183795
0.6183795
0.6187555
0.6187555
0.6187555
0.6187555
0.6187555
0.6187345
0.6187345
0.6187345
0.6187345
0.6187345
0.618328
0.618328
0.618328
0.618328
0.618328
0.6173231
0.6173231
0.6173231
0.6173231
0.6173231
0.6172942
0.6172942
0.6172942
0.6172942
0.6172942
0.6183118
0.6183118
0.6183118
0.6183118
0.6183118
0.618704
0.618704
0.618704
0.618704
0.618704
0.6186945
0.6186945
0.6186945
0.6186945
0.6186945
0.618285
0.618285
0.618285
0.618285
0.618285
0.6171434
0.6171434
0.6171434
0.6171434
0.6171434
0.6171575
0.6171575
0.6171575
0.6171575
0.6171575
0.6181753
0.6181753
0.6181753
0.6181753
0.6181753
0.6185629
0.6185629
0.6185629
0.6185629
0.6185629
0.6185565
0.6185565
0.6185565
0.6185565
0.6185565
0.6181581
0.6181581
0.6181581
0.6181581
0.6181581
0.6171467
0.6171467
0.6171467
0.6171467
0.6171467
0.617151
0.617151
0.617151
0.617151
0.617151
0.6181582
0.6181582
0.6181582
0.6181582
0.6181582
0.6185579
0.6185579
0.6185579
0.6185579
0.6185579
0.6186965
0.6186965
0.6186965
0.6186965
0.6186965
0.6182948
0.6182948
0.6182948
0.6182948
0.6182948
0.617284
0.617284
0.617284
0.617284
0.617284
0.6172893
0.6172893
0.6172893
0.6172893
0.6172893
0.6183009
0.6183009
0.6183009
0.6183009
0.6183009
0.6187401
0.6187401
0.6187401
0.6187401
0.6187401
0.6187486
0.6187486
0.6187486
0.6187486
0.6187486
0.6183634
0.6183634
0.6183634
0.6183634
0.6183634
0.6173324
0.6173324
0.6173324
0.6173324
0.6173324
0.6173188
0.6173188
0.6173188
0.6173188
0.6173188
0.6183016
0.6183016
0.6183016
0.6183016
0.6183016
0.6187118
0.6187118
0.6187118
0.6187118
0.6187118
0.6186933
0.6186933
0.6186933
0.6186933
0.6186933
0.6181615
0.6181615
0.6181615
0.6181615
0.6181615
0.6168699
0.6168699
0.6168699
0.6168699
0.6168699
0.6163457
0.6163457
0.6163457
0.6163457
0.6163457
0.6161991
0.6161991
0.6161991
0.6161991
0.6161991
0.6167157
0.6167157
0.6167157
0.6167157
0.6167157
0.6180464
0.6180464
0.6180464
0.6180464
0.6180464
0.618583
0.618583
0.618583
0.618583
0.618583
0.6184483
0.6184483
0.6184483
0.6184483
0.6184483
0.6180205
0.6180205
0.6180205
0.6180205
0.6180205
0.6170131
0.6170131
0.6170131
0.6170131
0.6170131
0.6170383
0.6170383
0.6170383
0.6170383
0.6170383
0.618089
0.618089
0.618089
0.618089
0.618089
0.6184766
0.6184766
0.6184766
0.6184766
0.6184766
0.6184612
0.6184612
0.6184612
0.6184612
0.6184612
0.6180487
0.6180487
0.6180487
0.6180487
0.6180487
0.6170295
0.6170295
0.6170295
0.6170295
0.6170295
0.617028
0.617028
0.617028
0.617028
0.617028
0.6181886
0.6181886
0.6181886
0.6181886
0.6181886
0.6186056
0.6186056
0.6186056
0.6186056
0.6186056
0.6185997
0.6185997
0.6185997
0.6185997
0.6185997
0.6181742
0.6181742
0.6181742
0.6181742
0.6181742
0.617161
0.617161
0.617161
0.617161
0.617161
0.6172213
0.6172213
0.6172213
0.6172213
0.6172213
0.6182568
0.6182568
0.6182568
0.6182568
0.6182568
0.6186571
0.6186571
0.6186571
0.6186571
0.6186571
0.6186506
0.6186506
0.6186506
0.6186506
0.6186506
0.6182409
0.6182409
0.6182409
0.6182409
0.6182409
0.6172117
0.6172117
0.6172117
0.6172117
0.6172117
0.6172125
0.6172125
0.6172125
0.6172125
0.6172125
0.6182324
0.6182324
0.6182324
0.6182324
0.6182324
0.6186485
0.6186485
0.6186485
0.6186485
0.6186485
0.6186414
0.6186414
0.6186414
0.6186414
0.6186414
0.6181629
0.6181629
0.6181629
0.6181629
0.6181629
0.617152
0.617152
0.617152
0.617152
0.617152
0.6171725
0.6171725
0.6171725
0.6171725
0.6171725
0.6181988
0.6181988
0.6181988
0.6181988
0.6181988
0.6186018
0.6186018
0.6186018
0.6186018
0.6186018
0.6184159
0.6184159
0.6184159
0.6184159
0.6184159
0.6180127
0.6180127
0.6180127
0.6180127
0.6180127
0.6169675
0.6169675
0.6169675
0.6169675
0.6169675
0.6169593
0.6169593
0.6169593
0.6169593
0.6169593
0.6179697
0.6179697
0.6179697
0.6179697
0.6179697
0.6182236
0.6182236
0.6182236
0.6182236
0.6182236
0.6181966
0.6181966
0.6181966
0.6181966
0.6181966
0.6176419
0.6176419
0.6176419
0.6176419
0.6176419
0.6163153
0.6163153
0.6163153
0.6163153
0.6163153
0.6158268
0.6158268
0.6158268
0.6158268
0.6158268
0.6156256
0.6156256
0.6156256
0.6156256
0.6156256
0.6161493
0.6161493
0.6161493
0.6161493
0.6161493
0.6175068
0.6175068
0.6175068
0.6175068
0.6175068
0.6180641
0.6180641
0.6180641
0.6180641
0.6180641
0.6180778
0.6180778
0.6180778
0.6180778
0.6180778
0.6177993
0.6177993
0.6177993
0.6177993
0.6177993
0.616772
0.616772
0.616772
0.616772
0.616772
0.6167918
0.6167918
0.6167918
0.6167918
0.6167918
0.6178495
0.6178495
0.6178495
0.6178495
0.6178495
0.6182619
0.6182619
0.6182619
0.6182619
0.6182619
0.6184571
0.6184571
0.6184571
0.6184571
0.6184571
0.6180394
0.6180394
0.6180394
0.6180394
0.6180394
0.6170137
0.6170137
0.6170137
0.6170137
0.6170137
0.6169959
0.6169959
0.6169959
0.6169959
0.6169959
0.6180064
0.6180064
0.6180064
0.6180064
0.6180064
0.6185035
0.6185035
0.6185035
0.6185035
0.6185035
0.6185039
0.6185039
0.6185039
0.6185039
0.6185039
0.6180717
0.6180717
0.6180717
0.6180717
0.6180717
0.6170433
0.6170433
0.6170433
0.6170433
0.6170433
0.6170584
0.6170584
0.6170584
0.6170584
0.6170584
0.6181015
0.6181015
0.6181015
0.6181015
0.6181015
0.6185178
0.6185178
0.6185178
0.6185178
0.6185178
0.6185112
0.6185112
0.6185112
0.6185112
0.6185112
0.6180854
0.6180854
0.6180854
0.6180854
0.6180854
0.6170498
0.6170498
0.6170498
0.6170498
0.6170498
0.6170089
0.6170089
0.6170089
0.6170089
0.6170089
0.6180439
0.6180439
0.6180439
0.6180439
0.6180439
0.6184663
0.6184663
0.6184663
0.6184663
0.6184663
0.6184527
0.6184527
0.6184527
0.6184527
0.6184527
0.6180036
0.6180036
0.6180036
0.6180036
0.6180036
0.6168576
0.6168576
0.6168576
0.6168576
0.6168576
0.6168944
0.6168944
0.6168944
0.6168944
0.6168944
0.6179264
0.6179264
0.6179264
0.6179264
0.6179264
0.6183341
0.6183341
0.6183341
0.6183341
0.6183341
0.6183302
0.6183302
0.6183302
0.6183302
0.6183302
0.6179147
0.6179147
0.6179147
0.6179147
0.6179147
0.6168628
0.6168628
0.6168628
0.6168628
0.6168628
0.6168603
0.6168603
0.6168603
0.6168603
0.6168603
0.6178913
0.6178913
0.6178913
0.6178913
0.6178913
0.6183084
0.6183084
0.6183084
0.6183084
0.6183084
0.6184148
0.6184148
0.6184148
0.6184148
0.6184148
0.6178371
0.6178371
0.6178371
0.6178371
0.6178371
0.6164806
0.6164806
0.6164806
0.6164806
0.6164806
0.6159844
0.6159844
0.6159844
0.6159844
0.6159844
0.6158724
0.6158724
0.6158724
0.6158724
0.6158724
0.6164468
0.6164468
0.6164468
0.6164468
0.6164468
0.617827
0.617827
0.617827
0.617827
0.617827
0.6184072
0.6184072
0.6184072
0.6184072
0.6184072
0.6184297
0.6184297
0.6184297
0.6184297
0.6184297
0.6179928
0.6179928
0.6179928
0.6179928
0.6179928
0.6169515
0.6169515
0.6169515
0.6169515
0.6169515
0.6169671
0.6169671
0.6169671
0.6169671
0.6169671
0.6180295
0.6180295
0.6180295
0.6180295
0.6180295
0.6184586
0.6184586
0.6184586
0.6184586
0.6184586
0.6184543
0.6184543
0.6184543
0.6184543
0.6184543
0.6179884
0.6179884
0.6179884
0.6179884
0.6179884
0.6169621
0.6169621
0.6169621
0.6169621
0.6169621
0.6169279
0.6169279
0.6169279
0.6169279
0.6169279
0.6179291
0.6179291
0.6179291
0.6179291
0.6179291
0.6183853
0.6183853
0.6183853
0.6183853
0.6183853
0.6182516
0.6182516
0.6182516
0.6182516
0.6182516
0.6178172
0.6178172
0.6178172
0.6178172
0.6178172
0.616779
0.616779
0.616779
0.616779
0.616779
0.6167851
0.6167851
0.6167851
0.6167851
0.6167851
0.6178226
0.6178226
0.6178226
0.6178226
0.6178226
0.6182583
0.6182583
0.6182583
0.6182583
0.6182583
0.6182517
0.6182517
0.6182517
0.6182517
0.6182517
0.6178081
0.6178081
0.6178081
0.6178081
0.6178081
0.6167774
0.6167774
0.6167774
0.6167774
0.6167774
0.6167903
0.6167903
0.6167903
0.6167903
0.6167903
0.6179771
0.6179771
0.6179771
0.6179771
0.6179771
0.618402
0.618402
0.618402
0.618402
0.618402
0.6183799
0.6183799
0.6183799
0.6183799
0.6183799
0.6179139
0.6179139
0.6179139
0.6179139
0.6179139
0.61692
0.61692
0.61692
0.61692
0.61692
0.6170177
0.6170177
0.6170177
0.6170177
0.6170177
0.6180507
0.6180507
0.6180507
0.6180507
0.6180507
0.6184622
0.6184622
0.6184622
0.6184622
0.6184622
0.618453
0.618453
0.618453
0.618453
0.618453
0.6180142
0.6180142
0.6180142
0.6180142
0.6180142
0.6169577
0.6169577
0.6169577
0.6169577
0.6169577
0.6169594
0.6169594
0.6169594
0.6169594
0.6169594
0.6180039
0.6180039
0.6180039
0.6180039
0.6180039
0.6184263
0.6184263
0.6184263
0.6184263
0.6184263
0.6183828
0.6183828
0.6183828
0.6183828
0.6183828
0.6177383
0.6177383
0.6177383
0.6177383
0.6177383
0.6163607
0.6163607
0.6163607
0.6163607
0.6163607
0.6158585
0.6158585
0.6158585
0.6158585
0.6158585
0.61576
0.61576
0.61576
0.61576
0.61576
0.6162968
0.6162968
0.6162968
0.6162968
0.6162968
0.6175532
0.6175532
0.6175532
0.6175532
0.6175532
0.6181525
0.6181525
0.6181525
0.6181525
0.6181525
0.6181826
0.6181826
0.6181826
0.6181826
0.6181826
0.6177443
0.6177443
0.6177443
0.6177443
0.6177443
0.6167009
0.6167009
0.6167009
0.6167009
0.6167009
0.6167052
0.6167052
0.6167052
0.6167052
0.6167052
0.6177612
0.6177612
0.6177612
0.6177612
0.6177612
0.6182066
0.6182066
0.6182066
0.6182066
0.6182066
0.6182086
0.6182086
0.6182086
0.6182086
0.6182086
0.6177842
0.6177842
0.6177842
0.6177842
0.6177842
0.6168988
0.6168988
0.6168988
0.6168988
0.6168988
0.6168555
0.6168555
0.6168555
0.6168555
0.6168555
0.6178527
0.6178527
0.6178527
0.6178527
0.6178527
0.6183184
0.6183184
0.6183184
0.6183184
0.6183184
0.6183331
0.6183331
0.6183331
0.6183331
0.6183331
0.6179415
0.6179415
0.6179415
0.6179415
0.6179415
0.6169004
0.6169004
0.6169004
0.6169004
0.6169004
0.6168935
0.6168935
0.6168935
0.6168935
0.6168935
0.6179265
0.6179265
0.6179265
0.6179265
0.6179265
0.6183749
0.6183749
0.6183749
0.6183749
0.6183749
0.6183682
0.6183682
0.6183682
0.6183682
0.6183682
0.6179101
0.6179101
0.6179101
0.6179101
0.6179101
0.616884
0.616884
0.616884
0.616884
0.616884
0.6169101
0.6169101
0.6169101
0.6169101
0.6169101
0.6179582
0.6179582
0.6179582
0.6179582
0.6179582
0.6183401
0.6183401
0.6183401
0.6183401
0.6183401
0.6183115
0.6183115
0.6183115
0.6183115
0.6183115
0.6178361
0.6178361
0.6178361
0.6178361
0.6178361
0.6168462
0.6168462
0.6168462
0.6168462
0.6168462
0.6169089
0.6169089
0.6169089
0.6169089
0.6169089
0.6178009
0.6178009
0.6178009
0.6178009
0.6178009
0.6182152
0.6182152
0.6182152
0.6182152
0.6182152
0.6181996
0.6181996
0.6181996
0.6181996
0.6181996
0.6177443
0.6177443
0.6177443
0.6177443
0.6177443
0.6166944
0.6166944
0.6166944
0.6166944
0.6166944
0.6167075
0.6167075
0.6167075
0.6167075
0.6167075
0.6177542
0.6177542
0.6177542
0.6177542
0.6177542
0.6181776
0.6181776
0.6181776
0.6181776
0.6181776
0.6181262
0.6181262
0.6181262
0.6181262
0.6181262
0.6175068
0.6175068
0.6175068
0.6175068
0.6175068
0.6162528
0.6162528
0.6162528
0.6162528
0.6162528
0.6157447
0.6157447
0.6157447
0.6157447
0.6157447
0.6156579
0.6156579
0.6156579
0.6156579
0.6156579
0.6161992
0.6161992
0.6161992
0.6161992
0.6161992
0.6176104
0.6176104
0.6176104
0.6176104
0.6176104
0.618273
0.618273
0.618273
0.618273
0.618273
0.6183124
0.6183124
0.6183124
0.6183124
0.6183124
0.6178753
0.6178753
0.6178753
0.6178753
0.6178753
0.6168356
0.6168356
0.6168356
0.6168356
0.6168356
0.6168232
0.6168232
0.6168232
0.6168232
0.6168232
0.6178618
0.6178618
0.6178618
0.6178618
0.6178618
0.6183263
0.6183263
0.6183263
0.6183263
0.6183263
0.6183361
0.6183361
0.6183361
0.6183361
0.6183361
0.6179076
0.6179076
0.6179076
0.6179076
0.6179076
0.616876
0.616876
0.616876
0.616876
0.616876
0.6167888
0.6167888
0.6167888
0.6167888
0.6167888
0.6177854
0.6177854
0.6177854
0.6177854
0.6177854
0.6182566
0.6182566
0.6182566
0.6182566
0.6182566