/*--------------------------------*- C++ -*----------------------------------*\
| =========                 |                                                 |
| \\      /  F ield         | OpenFOAM: The Open Source CFD Toolbox           |
|  \\    /   O peration     | Version:  4.0                                   |
|   \\  /    A nd           | Web:      www.OpenFOAM.org                      |
|    \\/     M anipulation  |                                                 |
\*---------------------------------------------------------------------------*/
FoamFile
{
    version     2.0;
    format      ascii;
    class       volScalarField;
    location    "60/electrolyte";
    object      etaConC;
}
// * * * * * * * * * * * * * * * * * * * * * * * * * * * * * * * * * * * * * //

dimensions      [1 2 -3 0 0 -1 0];

internalField   nonuniform List<scalar> 
4840
(
0.001205989
0.001205989
0.001205989
0.001205989
0.001205989
0.00120321
0.00120321
0.00120321
0.00120321
0.00120321
0.001199333
0.001199333
0.001199333
0.001199333
0.001199333
0.001198242
0.001198242
0.001198242
0.001198242
0.001198242
0.001200212
0.001200212
0.001200212
0.001200212
0.001200212
0.001201536
0.001201536
0.001201536
0.001201536
0.001201536
0.001206251
0.001206251
0.001206251
0.001206251
0.001206251
0.001206584
0.001206584
0.001206584
0.001206584
0.001206584
0.001202587
0.001202587
0.001202587
0.001202587
0.001202587
0.00120774
0.00120774
0.00120774
0.00120774
0.00120774
0.001208083
0.001208083
0.001208083
0.001208083
0.001208083
0.001205532
0.001205532
0.001205532
0.001205532
0.001205532
0.00120925
0.00120925
0.00120925
0.00120925
0.00120925
0.00120862
0.00120862
0.00120862
0.00120862
0.00120862
0.001204488
0.001204488
0.001204488
0.001204488
0.001204488
0.001209213
0.001209213
0.001209213
0.001209213
0.001209213
0.001208754
0.001208754
0.001208754
0.001208754
0.001208754
0.00120536
0.00120536
0.00120536
0.00120536
0.00120536
0.001209264
0.001209264
0.001209264
0.001209264
0.001209264
0.001208856
0.001208856
0.001208856
0.001208856
0.001208856
0.001204767
0.001204767
0.001204767
0.001204767
0.001204767
0.001208816
0.001208816
0.001208816
0.001208816
0.001208816
0.001208812
0.001208812
0.001208812
0.001208812
0.001208812
0.00120476
0.00120476
0.00120476
0.00120476
0.00120476
0.001208786
0.001208786
0.001208786
0.001208786
0.001208786
0.001209281
0.001209281
0.001209281
0.001209281
0.001209281
0.001205378
0.001205378
0.001205378
0.001205378
0.001205378
0.001208771
0.001208771
0.001208771
0.001208771
0.001208771
0.001209218
0.001209218
0.001209218
0.001209218
0.001209218
0.001204462
0.001204462
0.001204462
0.001204462
0.001204462
0.001208601
0.001208601
0.001208601
0.001208601
0.001208601
0.001209187
0.001209187
0.001209187
0.001209187
0.001209187
0.001205468
0.001205468
0.001205468
0.001205468
0.001205468
0.001208029
0.001208029
0.001208029
0.001208029
0.001208029
0.001207718
0.001207718
0.001207718
0.001207718
0.001207718
0.001202576
0.001202576
0.001202576
0.001202576
0.001202576
0.001206588
0.001206588
0.001206588
0.001206588
0.001206588
0.001206261
0.001206261
0.001206261
0.001206261
0.001206261
0.00120154
0.00120154
0.00120154
0.00120154
0.00120154
0.001200229
0.001200229
0.001200229
0.001200229
0.001200229
0.001198177
0.001198177
0.001198177
0.001198177
0.001198177
0.001199301
0.001199301
0.001199301
0.001199301
0.001199301
0.001203165
0.001203165
0.001203165
0.001203165
0.001203165
0.001205923
0.001205923
0.001205923
0.001205923
0.001205923
0.001210699
0.001210699
0.001210699
0.001210699
0.001210699
0.001220671
0.001220671
0.001220671
0.001220671
0.001220671
0.001229633
0.001229633
0.001229633
0.001229633
0.001229633
0.001231631
0.001231631
0.001231631
0.001231631
0.001231631
0.00122979
0.00122979
0.00122979
0.00122979
0.00122979
0.00123044
0.00123044
0.00123044
0.00123044
0.00123044
0.001217447
0.001217447
0.001217447
0.001217447
0.001217447
0.001222432
0.001222432
0.001222432
0.001222432
0.001222432
0.001233875
0.001233875
0.001233875
0.001233875
0.001233875
0.00123587
0.00123587
0.00123587
0.00123587
0.00123587
0.001236203
0.001236203
0.001236203
0.001236203
0.001236203
0.001234811
0.001234811
0.001234811
0.001234811
0.001234811
0.001222243
0.001222243
0.001222243
0.001222243
0.001222243
0.001222557
0.001222557
0.001222557
0.001222557
0.001222557
0.001234676
0.001234676
0.001234676
0.001234676
0.001234676
0.001236481
0.001236481
0.001236481
0.001236481
0.001236481
0.001236519
0.001236519
0.001236519
0.001236519
0.001236519
0.00123503
0.00123503
0.00123503
0.00123503
0.00123503
0.00122277
0.00122277
0.00122277
0.00122277
0.00122277
0.001222425
0.001222425
0.001222425
0.001222425
0.001222425
0.001234698
0.001234698
0.001234698
0.001234698
0.001234698
0.001236565
0.001236565
0.001236565
0.001236565
0.001236565
0.001236552
0.001236552
0.001236552
0.001236552
0.001236552
0.001234702
0.001234702
0.001234702
0.001234702
0.001234702
0.001222432
0.001222432
0.001222432
0.001222432
0.001222432
0.001222791
0.001222791
0.001222791
0.001222791
0.001222791
0.001235002
0.001235002
0.001235002
0.001235002
0.001235002
0.001236502
0.001236502
0.001236502
0.001236502
0.001236502
0.00123649
0.00123649
0.00123649
0.00123649
0.00123649
0.001234667
0.001234667
0.001234667
0.001234667
0.001234667
0.001222542
0.001222542
0.001222542
0.001222542
0.001222542
0.001222122
0.001222122
0.001222122
0.001222122
0.001222122
0.001234674
0.001234674
0.001234674
0.001234674
0.001234674
0.00123613
0.00123613
0.00123613
0.00123613
0.00123613
0.001235837
0.001235837
0.001235837
0.001235837
0.001235837
0.001233849
0.001233849
0.001233849
0.001233849
0.001233849
0.001222393
0.001222393
0.001222393
0.001222393
0.001222393
0.00121745
0.00121745
0.00121745
0.00121745
0.00121745
0.001230418
0.001230418
0.001230418
0.001230418
0.001230418
0.001229752
0.001229752
0.001229752
0.001229752
0.001229752
0.001231577
0.001231577
0.001231577
0.001231577
0.001231577
0.001229654
0.001229654
0.001229654
0.001229654
0.001229654
0.00122069
0.00122069
0.00122069
0.00122069
0.00122069
0.001210647
0.001210647
0.001210647
0.001210647
0.001210647
0.001214951
0.001214951
0.001214951
0.001214951
0.001214951
0.00122375
0.00122375
0.00122375
0.00122375
0.00122375
0.001231818
0.001231818
0.001231818
0.001231818
0.001231818
0.001229027
0.001229027
0.001229027
0.001229027
0.001229027
0.001223928
0.001223928
0.001223928
0.001223928
0.001223928
0.001226425
0.001226425
0.001226425
0.001226425
0.001226425
0.001216904
0.001216904
0.001216904
0.001216904
0.001216904
0.001221821
0.001221821
0.001221821
0.001221821
0.001221821
0.00123099
0.00123099
0.00123099
0.00123099
0.00123099
0.001229377
0.001229377
0.001229377
0.001229377
0.001229377
0.001228825
0.001228825
0.001228825
0.001228825
0.001228825
0.001230941
0.001230941
0.001230941
0.001230941
0.001230941
0.001220732
0.001220732
0.001220732
0.001220732
0.001220732
0.00122069
0.00122069
0.00122069
0.00122069
0.00122069
0.00123076
0.00123076
0.00123076
0.00123076
0.00123076
0.001229286
0.001229286
0.001229286
0.001229286
0.001229286
0.001229023
0.001229023
0.001229023
0.001229023
0.001229023
0.001231082
0.001231082
0.001231082
0.001231082
0.001231082
0.001220982
0.001220982
0.001220982
0.001220982
0.001220982
0.001220591
0.001220591
0.001220591
0.001220591
0.001220591
0.001230693
0.001230693
0.001230693
0.001230693
0.001230693
0.001229074
0.001229074
0.001229074
0.001229074
0.001229074
0.00122907
0.00122907
0.00122907
0.00122907
0.00122907
0.001230691
0.001230691
0.001230691
0.001230691
0.001230691
0.00122059
0.00122059
0.00122059
0.00122059
0.00122059
0.001220986
0.001220986
0.001220986
0.001220986
0.001220986
0.001231097
0.001231097
0.001231097
0.001231097
0.001231097
0.001229043
0.001229043
0.001229043
0.001229043
0.001229043
0.001229289
0.001229289
0.001229289
0.001229289
0.001229289
0.001230731
0.001230731
0.001230731
0.001230731
0.001230731
0.001220657
0.001220657
0.001220657
0.001220657
0.001220657
0.001220749
0.001220749
0.001220749
0.001220749
0.001220749
0.001230917
0.001230917
0.001230917
0.001230917
0.001230917
0.001228812
0.001228812
0.001228812
0.001228812
0.001228812
0.001229366
0.001229366
0.001229366
0.001229366
0.001229366
0.001230998
0.001230998
0.001230998
0.001230998
0.001230998
0.001221804
0.001221804
0.001221804
0.001221804
0.001221804
0.001216915
0.001216915
0.001216915
0.001216915
0.001216915
0.001226448
0.001226448
0.001226448
0.001226448
0.001226448
0.001223927
0.001223927
0.001223927
0.001223927
0.001223927
0.001229023
0.001229023
0.001229023
0.001229023
0.001229023
0.001231833
0.001231833
0.001231833
0.001231833
0.001231833
0.00122376
0.00122376
0.00122376
0.00122376
0.00122376
0.001214952
0.001214952
0.001214952
0.001214952
0.001214952
0.001215033
0.001215033
0.001215033
0.001215033
0.001215033
0.001221163
0.001221163
0.001221163
0.001221163
0.001221163
0.001229475
0.001229475
0.001229475
0.001229475
0.001229475
0.00122561
0.00122561
0.00122561
0.00122561
0.00122561
0.001218854
0.001218854
0.001218854
0.001218854
0.001218854
0.001222554
0.001222554
0.001222554
0.001222554
0.001222554
0.001213065
0.001213065
0.001213065
0.001213065
0.001213065
0.001217904
0.001217904
0.001217904
0.001217904
0.001217904
0.001226801
0.001226801
0.001226801
0.001226801
0.001226801
0.001224023
0.001224023
0.001224023
0.001224023
0.001224023
0.001223214
0.001223214
0.001223214
0.001223214
0.001223214
0.001226438
0.001226438
0.001226438
0.001226438
0.001226438
0.00121618
0.00121618
0.00121618
0.00121618
0.00121618
0.001217603
0.001217603
0.001217603
0.001217603
0.001217603
0.001226775
0.001226775
0.001226775
0.001226775
0.001226775
0.001223829
0.001223829
0.001223829
0.001223829
0.001223829
0.001223564
0.001223564
0.001223564
0.001223564
0.001223564
0.001226885
0.001226885
0.001226885
0.001226885
0.001226885
0.001217074
0.001217074
0.001217074
0.001217074
0.001217074
0.001217272
0.001217272
0.001217272
0.001217272
0.001217272
0.001226726
0.001226726
0.001226726
0.001226726
0.001226726
0.001223662
0.001223662
0.001223662
0.001223662
0.001223662
0.001223663
0.001223663
0.001223663
0.001223663
0.001223663
0.001226701
0.001226701
0.001226701
0.001226701
0.001226701
0.001217242
0.001217242
0.001217242
0.001217242
0.001217242
0.001217095
0.001217095
0.001217095
0.001217095
0.001217095
0.001226952
0.001226952
0.001226952
0.001226952
0.001226952
0.001223626
0.001223626
0.001223626
0.001223626
0.001223626
0.001223836
0.001223836
0.001223836
0.001223836
0.001223836
0.001226751
0.001226751
0.001226751
0.001226751
0.001226751
0.00121758
0.00121758
0.00121758
0.00121758
0.00121758
0.001216278
0.001216278
0.001216278
0.001216278
0.001216278
0.001226514
0.001226514
0.001226514
0.001226514
0.001226514
0.001223211
0.001223211
0.001223211
0.001223211
0.001223211
0.00122403
0.00122403
0.00122403
0.00122403
0.00122403
0.001226829
0.001226829
0.001226829
0.001226829
0.001226829
0.001217913
0.001217913
0.001217913
0.001217913
0.001217913
0.001213097
0.001213097
0.001213097
0.001213097
0.001213097
0.001222622
0.001222622
0.001222622
0.001222622
0.001222622
0.001218888
0.001218888
0.001218888
0.001218888
0.001218888
0.001225645
0.001225645
0.001225645
0.001225645
0.001225645
0.001229446
0.001229446
0.001229446
0.001229446
0.001229446
0.001221133
0.001221133
0.001221133
0.001221133
0.001221133
0.001215076
0.001215076
0.001215076
0.001215076
0.001215076
0.001211603
0.001211603
0.001211603
0.001211603
0.001211603
0.001218619
0.001218619
0.001218619
0.001218619
0.001218619
0.001226138
0.001226138
0.001226138
0.001226138
0.001226138
0.001222035
0.001222035
0.001222035
0.001222035
0.001222035
0.001215251
0.001215251
0.001215251
0.001215251
0.001215251
0.001218445
0.001218445
0.001218445
0.001218445
0.001218445
0.001210636
0.001210636
0.001210636
0.001210636
0.001210636
0.001214932
0.001214932
0.001214932
0.001214932
0.001214932
0.001222778
0.001222778
0.001222778
0.001222778
0.001222778
0.001219908
0.001219908
0.001219908
0.001219908
0.001219908
0.001219099
0.001219099
0.001219099
0.001219099
0.001219099
0.00122166
0.00122166
0.00122166
0.00122166
0.00122166
0.001213457
0.001213457
0.001213457
0.001213457
0.001213457
0.001214994
0.001214994
0.001214994
0.001214994
0.001214994
0.001222594
0.001222594
0.001222594
0.001222594
0.001222594
0.001219569
0.001219569
0.001219569
0.001219569
0.001219569
0.001219339
0.001219339
0.001219339
0.001219339
0.001219339
0.001222204
0.001222204
0.001222204
0.001222204
0.001222204
0.001214023
0.001214023
0.001214023
0.001214023
0.001214023
0.001214474
0.001214474
0.001214474
0.001214474
0.001214474
0.001222309
0.001222309
0.001222309
0.001222309
0.001222309
0.001219295
0.001219295
0.001219295
0.001219295
0.001219295
0.001219293
0.001219293
0.001219293
0.001219293
0.001219293
0.001222291
0.001222291
0.001222291
0.001222291
0.001222291
0.001214521
0.001214521
0.001214521
0.001214521
0.001214521
0.001214044
0.001214044
0.001214044
0.001214044
0.001214044
0.001222219
0.001222219
0.001222219
0.001222219
0.001222219
0.001219353
0.001219353
0.001219353
0.001219353
0.001219353
0.001219558
0.001219558
0.001219558
0.001219558
0.001219558
0.001222595
0.001222595
0.001222595
0.001222595
0.001222595
0.00121498
0.00121498
0.00121498
0.00121498
0.00121498
0.001213482
0.001213482
0.001213482
0.001213482
0.001213482
0.001221684
0.001221684
0.001221684
0.001221684
0.001221684
0.001219109
0.001219109
0.001219109
0.001219109
0.001219109
0.001219922
0.001219922
0.001219922
0.001219922
0.001219922
0.001222807
0.001222807
0.001222807
0.001222807
0.001222807
0.001214948
0.001214948
0.001214948
0.001214948
0.001214948
0.001210658
0.001210658
0.001210658
0.001210658
0.001210658
0.001218466
0.001218466
0.001218466
0.001218466
0.001218466
0.001215242
0.001215242
0.001215242
0.001215242
0.001215242
0.001222079
0.001222079
0.001222079
0.001222079
0.001222079
0.001226192
0.001226192
0.001226192
0.001226192
0.001226192
0.001218671
0.001218671
0.001218671
0.001218671
0.001218671
0.001211656
0.001211656
0.001211656
0.001211656
0.001211656
0.001209255
0.001209255
0.001209255
0.001209255
0.001209255
0.00121639
0.00121639
0.00121639
0.00121639
0.00121639
0.001222594
0.001222594
0.001222594
0.001222594
0.001222594
0.00121897
0.00121897
0.00121897
0.00121897
0.00121897
0.00121227
0.00121227
0.00121227
0.00121227
0.00121227
0.001215446
0.001215446
0.001215446
0.001215446
0.001215446
0.001207722
0.001207722
0.001207722
0.001207722
0.001207722
0.001212437
0.001212437
0.001212437
0.001212437
0.001212437
0.001219382
0.001219382
0.001219382
0.001219382
0.001219382
0.001216625
0.001216625
0.001216625
0.001216625
0.001216625
0.001215467
0.001215467
0.001215467
0.001215467
0.001215467
0.001217874
0.001217874
0.001217874
0.001217874
0.001217874
0.001210389
0.001210389
0.001210389
0.001210389
0.001210389
0.001212169
0.001212169
0.001212169
0.001212169
0.001212169
0.001218962
0.001218962
0.001218962
0.001218962
0.001218962
0.001215914
0.001215914
0.001215914
0.001215914
0.001215914
0.001215644
0.001215644
0.001215644
0.001215644
0.001215644
0.001218398
0.001218398
0.001218398
0.001218398
0.001218398
0.001210914
0.001210914
0.001210914
0.001210914
0.001210914
0.001211554
0.001211554
0.001211554
0.001211554
0.001211554
0.001218688
0.001218688
0.001218688
0.001218688
0.001218688
0.001215716
0.001215716
0.001215716
0.001215716
0.001215716
0.001215712
0.001215712
0.001215712
0.001215712
0.001215712
0.001218673
0.001218673
0.001218673
0.001218673
0.001218673
0.001211557
0.001211557
0.001211557
0.001211557
0.001211557
0.001210943
0.001210943
0.001210943
0.001210943
0.001210943
0.001218423
0.001218423
0.001218423
0.001218423
0.001218423
0.001215674
0.001215674
0.001215674
0.001215674
0.001215674
0.001215922
0.001215922
0.001215922
0.001215922
0.001215922
0.001218857
0.001218857
0.001218857
0.001218857
0.001218857
0.001212201
0.001212201
0.001212201
0.001212201
0.001212201
0.001210471
0.001210471
0.001210471
0.001210471
0.001210471
0.001217959
0.001217959
0.001217959
0.001217959
0.001217959
0.001215529
0.001215529
0.001215529
0.001215529
0.001215529
0.001216477
0.001216477
0.001216477
0.001216477
0.001216477
0.001219254
0.001219254
0.001219254
0.001219254
0.001219254
0.001212311
0.001212311
0.001212311
0.001212311
0.001212311
0.001207592
0.001207592
0.001207592
0.001207592
0.001207592
0.001215292
0.001215292
0.001215292
0.001215292
0.001215292
0.001212147
0.001212147
0.001212147
0.001212147
0.001212147
0.001218643
0.001218643
0.001218643
0.001218643
0.001218643
0.001222272
0.001222272
0.001222272
0.001222272
0.001222272
0.001216068
0.001216068
0.001216068
0.001216068
0.001216068
0.001208935
0.001208935
0.001208935
0.001208935
0.001208935
0.001206552
0.001206552
0.001206552
0.001206552
0.001206552
0.001213834
0.001213834
0.001213834
0.001213834
0.001213834
0.001218912
0.001218912
0.001218912
0.001218912
0.001218912
0.001215792
0.001215792
0.001215792
0.001215792
0.001215792
0.001209323
0.001209323
0.001209323
0.001209323
0.001209323
0.001212103
0.001212103
0.001212103
0.001212103
0.001212103
0.001204837
0.001204837
0.001204837
0.001204837
0.001204837
0.001209907
0.001209907
0.001209907
0.001209907
0.001209907
0.001215832
0.001215832
0.001215832
0.001215832
0.001215832
0.001213333
0.001213333
0.001213333
0.001213333
0.001213333
0.001212233
0.001212233
0.001212233
0.001212233
0.001212233
0.001214554
0.001214554
0.001214554
0.001214554
0.001214554
0.001207569
0.001207569
0.001207569
0.001207569
0.001207569
0.001209338
0.001209338
0.001209338
0.001209338
0.001209338
0.001215595
0.001215595
0.001215595
0.001215595
0.001215595
0.001212845
0.001212845
0.001212845
0.001212845
0.001212845
0.001212761
0.001212761
0.001212761
0.001212761
0.001212761
0.001215436
0.001215436
0.001215436
0.001215436
0.001215436
0.001208496
0.001208496
0.001208496
0.001208496
0.001208496
0.001208957
0.001208957
0.001208957
0.001208957
0.001208957
0.001215557
0.001215557
0.001215557
0.001215557
0.001215557
0.00121285
0.00121285
0.00121285
0.00121285
0.00121285
0.001212841
0.001212841
0.001212841
0.001212841
0.001212841
0.001215532
0.001215532
0.001215532
0.001215532
0.001215532
0.001208952
0.001208952
0.001208952
0.001208952
0.001208952
0.001208491
0.001208491
0.001208491
0.001208491
0.001208491
0.001215245
0.001215245
0.001215245
0.001215245
0.001215245
0.001212572
0.001212572
0.001212572
0.001212572
0.001212572
0.001212842
0.001212842
0.001212842
0.001212842
0.001212842
0.00121556
0.00121556
0.00121556
0.00121556
0.00121556
0.001209315
0.001209315
0.001209315
0.001209315
0.001209315
0.001207532
0.001207532
0.001207532
0.001207532
0.001207532
0.001214521
0.001214521
0.001214521
0.001214521
0.001214521
0.001212183
0.001212183
0.001212183
0.001212183
0.001212183
0.001213294
0.001213294
0.001213294
0.001213294
0.001213294
0.001215815
0.001215815
0.001215815
0.001215815
0.001215815
0.001209899
0.001209899
0.001209899
0.001209899
0.001209899
0.001204822
0.001204822
0.001204822
0.001204822
0.001204822
0.001212061
0.001212061
0.001212061
0.001212061
0.001212061
0.001209283
0.001209283
0.001209283
0.001209283
0.001209283
0.001215756
0.001215756
0.001215756
0.001215756
0.001215756
0.001218905
0.001218905
0.001218905
0.001218905
0.001218905
0.001213826
0.001213826
0.001213826
0.001213826
0.001213826
0.001206495
0.001206495
0.001206495
0.001206495
0.001206495
0.001204293
0.001204293
0.001204293
0.001204293
0.001204293
0.001211931
0.001211931
0.001211931
0.001211931
0.001211931
0.001216085
0.001216085
0.001216085
0.001216085
0.001216085
0.001213433
0.001213433
0.001213433
0.001213433
0.001213433
0.001207438
0.001207438
0.001207438
0.001207438
0.001207438
0.001209696
0.001209696
0.001209696
0.001209696
0.001209696
0.001202842
0.001202842
0.001202842
0.001202842
0.001202842
0.001208079
0.001208079
0.001208079
0.001208079
0.001208079
0.001213247
0.001213247
0.001213247
0.001213247
0.001213247
0.001210991
0.001210991
0.001210991
0.001210991
0.001210991
0.001209788
0.001209788
0.001209788
0.001209788
0.001209788
0.001212201
0.001212201
0.001212201
0.001212201
0.001212201
0.001205202
0.001205202
0.001205202
0.001205202
0.001205202
0.001206724
0.001206724
0.001206724
0.001206724
0.001206724
0.001212786
0.001212786
0.001212786
0.001212786
0.001212786
0.00121026
0.00121026
0.00121026
0.00121026
0.00121026
0.001209988
0.001209988
0.001209988
0.001209988
0.001209988
0.001212716
0.001212716
0.001212716
0.001212716
0.001212716
0.001206085
0.001206085
0.001206085
0.001206085
0.001206085
0.001206129
0.001206129
0.001206129
0.001206129
0.001206129
0.001212377
0.001212377
0.001212377
0.001212377
0.001212377
0.001210065
0.001210065
0.001210065
0.001210065
0.001210065
0.001210054
0.001210054
0.001210054
0.001210054
0.001210054
0.001212362
0.001212362
0.001212362
0.001212362
0.001212362
0.001206131
0.001206131
0.001206131
0.001206131
0.001206131
0.001206087
0.001206087
0.001206087
0.001206087
0.001206087
0.001212731
0.001212731
0.001212731
0.001212731
0.001212731
0.001209994
0.001209994
0.001209994
0.001209994
0.001209994
0.001210257
0.001210257
0.001210257
0.001210257
0.001210257
0.001212763
0.001212763
0.001212763
0.001212763
0.001212763
0.001206709
0.001206709
0.001206709
0.001206709
0.001206709
0.001205191
0.001205191
0.001205191
0.001205191
0.001205191
0.001212203
0.001212203
0.001212203
0.001212203
0.001212203
0.00120978
0.00120978
0.00120978
0.00120978
0.00120978
0.001210993
0.001210993
0.001210993
0.001210993
0.001210993
0.001213272
0.001213272
0.001213272
0.001213272
0.001213272
0.001208102
0.001208102
0.001208102
0.001208102
0.001208102
0.00120286
0.00120286
0.00120286
0.00120286
0.00120286
0.001209688
0.001209688
0.001209688
0.001209688
0.001209688
0.001207427
0.001207427
0.001207427
0.001207427
0.001207427
0.001213429
0.001213429
0.001213429
0.001213429
0.001213429
0.001216086
0.001216086
0.001216086
0.001216086
0.001216086
0.001211931
0.001211931
0.001211931
0.001211931
0.001211931
0.001204291
0.001204291
0.001204291
0.001204291
0.001204291
0.001202186
0.001202186
0.001202186
0.001202186
0.001202186
0.001210096
0.001210096
0.001210096
0.001210096
0.001210096
0.00121318
0.00121318
0.00121318
0.00121318
0.00121318
0.001210833
0.001210833
0.001210833
0.001210833
0.001210833
0.001205386
0.001205386
0.001205386
0.001205386
0.001205386
0.001207221
0.001207221
0.001207221
0.001207221
0.001207221
0.001200726
0.001200726
0.001200726
0.001200726
0.001200726
0.001205847
0.001205847
0.001205847
0.001205847
0.001205847
0.001210567
0.001210567
0.001210567
0.001210567
0.001210567
0.001208469
0.001208469
0.001208469
0.001208469
0.001208469
0.001207334
0.001207334
0.001207334
0.001207334
0.001207334
0.001209829
0.001209829
0.001209829
0.001209829
0.001209829
0.001203236
0.001203236
0.001203236
0.001203236
0.001203236
0.0012044
0.0012044
0.0012044
0.0012044
0.0012044
0.001210313
0.001210313
0.001210313
0.001210313
0.001210313
0.001208015
0.001208015
0.001208015
0.001208015
0.001208015
0.001207806
0.001207806
0.001207806
0.001207806
0.001207806
0.001210638
0.001210638
0.001210638
0.001210638
0.001210638
0.001204333
0.001204333
0.001204333
0.001204333
0.001204333
0.001204069
0.001204069
0.001204069
0.001204069
0.001204069
0.00121017
0.00121017
0.00121017
0.00121017
0.00121017
0.001208097
0.001208097
0.001208097
0.001208097
0.001208097
0.00120809
0.00120809
0.00120809
0.00120809
0.00120809
0.001210163
0.001210163
0.001210163
0.001210163
0.001210163
0.001204082
0.001204082
0.001204082
0.001204082
0.001204082
0.001204347
0.001204347
0.001204347
0.001204347
0.001204347
0.001210857
0.001210857
0.001210857
0.001210857
0.001210857
0.001208009
0.001208009
0.001208009
0.001208009
0.001208009
0.001208011
0.001208011
0.001208011
0.001208011
0.001208011
0.001210303
0.001210303
0.001210303
0.001210303
0.001210303
0.001204388
0.001204388
0.001204388
0.001204388
0.001204388
0.001203256
0.001203256
0.001203256
0.001203256
0.001203256
0.001209864
0.001209864
0.001209864
0.001209864
0.001209864
0.001207363
0.001207363
0.001207363
0.001207363
0.001207363
0.00120851
0.00120851
0.00120851
0.00120851
0.00120851
0.001210627
0.001210627
0.001210627
0.001210627
0.001210627
0.001205886
0.001205886
0.001205886
0.001205886
0.001205886
0.001200792
0.001200792
0.001200792
0.001200792
0.001200792
0.001207253
0.001207253
0.001207253
0.001207253
0.001207253
0.001205405
0.001205405
0.001205405
0.001205405
0.001205405
0.001210861
0.001210861
0.001210861
0.001210861
0.001210861
0.001213189
0.001213189
0.001213189
0.001213189
0.001213189
0.001210105
0.001210105
0.001210105
0.001210105
0.001210105
0.001202243
0.001202243
0.001202243
0.001202243
0.001202243
0.001200246
0.001200246
0.001200246
0.001200246
0.001200246
0.001208253
0.001208253
0.001208253
0.001208253
0.001208253
0.001210751
0.001210751
0.001210751
0.001210751
0.001210751
0.001208715
0.001208715
0.001208715
0.001208715
0.001208715
0.001204075
0.001204075
0.001204075
0.001204075
0.001204075
0.001205484
0.001205484
0.001205484
0.001205484
0.001205484
0.001199352
0.001199352
0.001199352
0.001199352
0.001199352
0.00120429
0.00120429
0.00120429
0.00120429
0.00120429
0.001208766
0.001208766
0.001208766
0.001208766
0.001208766
0.001206676
0.001206676
0.001206676
0.001206676
0.001206676
0.001205691
0.001205691
0.001205691
0.001205691
0.001205691
0.001208225
0.001208225
0.001208225
0.001208225
0.001208225
0.001201808
0.001201808
0.001201808
0.001201808
0.001201808
0.001202626
0.001202626
0.001202626
0.001202626
0.001202626
0.001208255
0.001208255
0.001208255
0.001208255
0.001208255
0.001206112
0.001206112
0.001206112
0.001206112
0.001206112
0.001205999
0.001205999
0.001205999
0.001205999
0.001205999
0.001208825
0.001208825
0.001208825
0.001208825
0.001208825
0.001202353
0.001202353
0.001202353
0.001202353
0.001202353
0.001202049
0.001202049
0.001202049
0.001202049
0.001202049
0.001208047
0.001208047
0.001208047
0.001208047
0.001208047
0.001206056
0.001206056
0.001206056
0.001206056
0.001206056
0.001206053
0.001206053
0.001206053
0.001206053
0.001206053
0.001208036
0.001208036
0.001208036
0.001208036
0.001208036
0.001202049
0.001202049
0.001202049
0.001202049
0.001202049
0.001202343
0.001202343
0.001202343
0.001202343
0.001202343
0.001208831
0.001208831
0.001208831
0.001208831
0.001208831
0.001205989
0.001205989
0.001205989
0.001205989
0.001205989
0.001206096
0.001206096
0.001206096
0.001206096
0.001206096
0.001208316
0.001208316
0.001208316
0.001208316
0.001208316
0.001202543
0.001202543
0.001202543
0.001202543
0.001202543
0.001201716
0.001201716
0.001201716
0.001201716
0.001201716
0.001208147
0.001208147
0.001208147
0.001208147
0.001208147
0.001205607
0.001205607
0.001205607
0.001205607
0.001205607
0.001206825
0.001206825
0.001206825
0.001206825
0.001206825
0.00120894
0.00120894
0.00120894
0.00120894
0.00120894
0.001204442
0.001204442
0.001204442
0.001204442
0.001204442
0.001199524
0.001199524
0.001199524
0.001199524
0.001199524
0.001205635
0.001205635
0.001205635
0.001205635
0.001205635
0.001204172
0.001204172
0.001204172
0.001204172
0.001204172
0.001209031
0.001209031
0.001209031
0.001209031
0.001209031
0.001211073
0.001211073
0.001211073
0.001211073
0.001211073
0.001208577
0.001208577
0.001208577
0.001208577
0.001208577
0.001200565
0.001200565
0.001200565
0.001200565
0.001200565
0.001198517
0.001198517
0.001198517
0.001198517
0.001198517
0.001206268
0.001206268
0.001206268
0.001206268
0.001206268
0.001208588
0.001208588
0.001208588
0.001208588
0.001208588
0.00120681
0.00120681
0.00120681
0.00120681
0.00120681
0.001202579
0.001202579
0.001202579
0.001202579
0.001202579
0.001203524
0.001203524
0.001203524
0.001203524
0.001203524
0.001197744
0.001197744
0.001197744
0.001197744
0.001197744
0.001202375
0.001202375
0.001202375
0.001202375
0.001202375
0.001206887
0.001206887
0.001206887
0.001206887
0.001206887
0.00120466
0.00120466
0.00120466
0.00120466
0.00120466
0.001203477
0.001203477
0.001203477
0.001203477
0.001203477
0.00120592
0.00120592
0.00120592
0.00120592
0.00120592
0.001199682
0.001199682
0.001199682
0.001199682
0.001199682
0.001200488
0.001200488
0.001200488
0.001200488
0.001200488
0.001206089
0.001206089
0.001206089
0.001206089
0.001206089
0.001203908
0.001203908
0.001203908
0.001203908
0.001203908
0.001203861
0.001203861
0.001203861
0.001203861
0.001203861
0.001206615
0.001206615
0.001206615
0.001206615
0.001206615
0.001200216
0.001200216
0.001200216
0.001200216
0.001200216
0.001200043
0.001200043
0.001200043
0.001200043
0.001200043
0.00120588
0.00120588
0.00120588
0.00120588
0.00120588
0.001203916
0.001203916
0.001203916
0.001203916
0.001203916
0.001203918
0.001203918
0.001203918
0.001203918
0.001203918
0.001205874
0.001205874
0.001205874
0.001205874
0.001205874
0.001200078
0.001200078
0.001200078
0.001200078
0.001200078
0.001200214
0.001200214
0.001200214
0.001200214
0.001200214
0.001206632
0.001206632
0.001206632
0.001206632
0.001206632
0.001203868
0.001203868
0.001203868
0.001203868
0.001203868
0.001203906
0.001203906
0.001203906
0.001203906
0.001203906
0.001206021
0.001206021
0.001206021
0.001206021
0.001206021
0.001200681
0.001200681
0.001200681
0.001200681
0.001200681
0.001199875
0.001199875
0.001199875
0.001199875
0.001199875
0.001206121
0.001206121
0.001206121
0.001206121
0.001206121
0.001203667
0.001203667
0.001203667
0.001203667
0.001203667
0.00120452
0.00120452
0.00120452
0.00120452
0.00120452
0.001206749
0.001206749
0.001206749
0.001206749
0.001206749
0.001202215
0.001202215
0.001202215
0.001202215
0.001202215
0.001197576
0.001197576
0.001197576
0.001197576
0.001197576
0.001203326
0.001203326
0.001203326
0.001203326
0.001203326
0.001202301
0.001202301
0.001202301
0.001202301
0.001202301
0.001206267
0.001206267
0.001206267
0.001206267
0.001206267
0.001208047
0.001208047
0.001208047
0.001208047
0.001208047
0.001205731
0.001205731
0.001205731
0.001205731
0.001205731
0.001197981
0.001197981
0.001197981
0.001197981
0.001197981
0.00119627
0.00119627
0.00119627
0.00119627
0.00119627
0.001203528
0.001203528
0.001203528
0.001203528
0.001203528
0.001205917
0.001205917
0.001205917
0.001205917
0.001205917
0.001204351
0.001204351
0.001204351
0.001204351
0.001204351
0.001200698
0.001200698
0.001200698
0.001200698
0.001200698
0.001201468
0.001201468
0.001201468