/*--------------------------------*- C++ -*----------------------------------*\
| =========                 |                                                 |
| \\      /  F ield         | OpenFOAM: The Open Source CFD Toolbox           |
|  \\    /   O peration     | Version:  4.0                                   |
|   \\  /    A nd           | Web:      www.OpenFOAM.org                      |
|    \\/     M anipulation  |                                                 |
\*---------------------------------------------------------------------------*/
FoamFile
{
    version     2.0;
    format      ascii;
    class       volScalarField;
    location    "60/electrolyte";
    object      etaConC;
}
// * * * * * * * * * * * * * * * * * * * * * * * * * * * * * * * * * * * * * //

dimensions      [1 2 -3 0 0 -1 0];

internalField   nonuniform List<scalar> 
4840
(
0.002492374
0.002492374
0.002492374
0.002492374
0.002492374
0.00252892
0.00252892
0.00252892
0.00252892
0.00252892
0.002568831
0.002568831
0.002568831
0.002568831
0.002568831
0.002572057
0.002572057
0.002572057
0.002572057
0.002572057
0.002570087
0.002570087
0.002570087
0.002570087
0.002570087
0.002561146
0.002561146
0.002561146
0.002561146
0.002561146
0.002518607
0.002518607
0.002518607
0.002518607
0.002518607
0.002521289
0.002521289
0.002521289
0.002521289
0.002521289
0.002561665
0.002561665
0.002561665
0.002561665
0.002561665
0.002564795
0.002564795
0.002564795
0.002564795
0.002564795
0.002556973
0.002556973
0.002556973
0.002556973
0.002556973
0.002553653
0.002553653
0.002553653
0.002553653
0.002553653
0.002512408
0.002512408
0.002512408
0.002512408
0.002512408
0.002513298
0.002513298
0.002513298
0.002513298
0.002513298
0.00255398
0.00255398
0.00255398
0.00255398
0.00255398
0.002554307
0.002554307
0.002554307
0.002554307
0.002554307
0.002554205
0.002554205
0.002554205
0.002554205
0.002554205
0.002550983
0.002550983
0.002550983
0.002550983
0.002550983
0.00251005
0.00251005
0.00251005
0.00251005
0.00251005
0.002510426
0.002510426
0.002510426
0.002510426
0.002510426
0.002551087
0.002551087
0.002551087
0.002551087
0.002551087
0.002554135
0.002554135
0.002554135
0.002554135
0.002554135
0.002554104
0.002554104
0.002554104
0.002554104
0.002554104
0.002550953
0.002550953
0.002550953
0.002550953
0.002550953
0.002510219
0.002510219
0.002510219
0.002510219
0.002510219
0.002512323
0.002512323
0.002512323
0.002512323
0.002512323
0.002553308
0.002553308
0.002553308
0.002553308
0.002553308
0.002556423
0.002556423
0.002556423
0.002556423
0.002556423
0.00255647
0.00255647
0.00255647
0.00255647
0.00255647
0.002553265
0.002553265
0.002553265
0.002553265
0.002553265
0.002518508
0.002518508
0.002518508
0.002518508
0.002518508
0.002517804
0.002517804
0.002517804
0.002517804
0.002517804
0.002559142
0.002559142
0.002559142
0.002559142
0.002559142
0.002562368
0.002562368
0.002562368
0.002562368
0.002562368
0.002562516
0.002562516
0.002562516
0.002562516
0.002562516
0.002559156
0.002559156
0.002559156
0.002559156
0.002559156
0.002518818
0.002518818
0.002518818
0.002518818
0.002518818
0.00251632
0.00251632
0.00251632
0.00251632
0.00251632
0.002558813
0.002558813
0.002558813
0.002558813
0.002558813
0.002562481
0.002562481
0.002562481
0.002562481
0.002562481
0.002558232
0.002558232
0.002558232
0.002558232
0.002558232
0.002554388
0.002554388
0.002554388
0.002554388
0.002554388
0.002513865
0.002513865
0.002513865
0.002513865
0.002513865
0.002476693
0.002476693
0.002476693
0.002476693
0.002476693
0.002477587
0.002477587
0.002477587
0.002477587
0.002477587
0.002503646
0.002503646
0.002503646
0.002503646
0.002503646
0.002535458
0.002535458
0.002535458
0.002535458
0.002535458
0.002538954
0.002538954
0.002538954
0.002538954
0.002538954
0.002537117
0.002537117
0.002537117
0.002537117
0.002537117
0.002531622
0.002531622
0.002531622
0.002531622
0.002531622
0.002496279
0.002496279
0.002496279
0.002496279
0.002496279
0.002499469
0.002499469
0.002499469
0.002499469
0.002499469
0.002532875
0.002532875
0.002532875
0.002532875
0.002532875
0.002537261
0.002537261
0.002537261
0.002537261
0.002537261
0.002536981
0.002536981
0.002536981
0.002536981
0.002536981
0.002534343
0.002534343
0.002534343
0.002534343
0.002534343
0.002499841
0.002499841
0.002499841
0.002499841
0.002499841
0.002501247
0.002501247
0.002501247
0.002501247
0.002501247
0.002535048
0.002535048
0.002535048
0.002535048
0.002535048
0.002539552
0.002539552
0.002539552
0.002539552
0.002539552
0.002545285
0.002545285
0.002545285
0.002545285
0.002545285
0.002540469
0.002540469
0.002540469
0.002540469
0.002540469
0.002506255
0.002506255
0.002506255
0.002506255
0.002506255
0.002506762
0.002506762
0.002506762
0.002506762
0.002506762
0.002540846
0.002540846
0.002540846
0.002540846
0.002540846
0.002545368
0.002545368
0.002545368
0.002545368
0.002545368
0.002545279
0.002545279
0.002545279
0.002545279
0.002545279
0.002540556
0.002540556
0.002540556
0.002540556
0.002540556
0.002506558
0.002506558
0.002506558
0.002506558
0.002506558
0.002506406
0.002506406
0.002506406
0.002506406
0.002506406
0.002534779
0.002534779
0.002534779
0.002534779
0.002534779
0.002539415
0.002539415
0.002539415
0.002539415
0.002539415
0.002539422
0.002539422
0.002539422
0.002539422
0.002539422
0.002534744
0.002534744
0.002534744
0.002534744
0.002534744
0.002501002
0.002501002
0.002501002
0.002501002
0.002501002
0.00249763
0.00249763
0.00249763
0.00249763
0.00249763
0.002532205
0.002532205
0.002532205
0.002532205
0.002532205
0.002536983
0.002536983
0.002536983
0.002536983
0.002536983
0.002537136
0.002537136
0.002537136
0.002537136
0.002537136
0.002532577
0.002532577
0.002532577
0.002532577
0.002532577
0.00249924
0.00249924
0.00249924
0.00249924
0.00249924
0.002496395
0.002496395
0.002496395
0.002496395
0.002496395
0.002531786
0.002531786
0.002531786
0.002531786
0.002531786
0.002537075
0.002537075
0.002537075
0.002537075
0.002537075
0.002538666
0.002538666
0.002538666
0.002538666
0.002538666
0.002537088
0.002537088
0.002537088
0.002537088
0.002537088
0.002505152
0.002505152
0.002505152
0.002505152
0.002505152
0.002477293
0.002477293
0.002477293
0.002477293
0.002477293
0.002471005
0.002471005
0.002471005
0.002471005
0.002471005
0.002494294
0.002494294
0.002494294
0.002494294
0.002494294
0.002529533
0.002529533
0.002529533
0.002529533
0.002529533
0.002533933
0.002533933
0.002533933
0.002533933
0.002533933
0.002531929
0.002531929
0.002531929
0.002531929
0.002531929
0.002524945
0.002524945
0.002524945
0.002524945
0.002524945
0.002493681
0.002493681
0.002493681
0.002493681
0.002493681
0.002496996
0.002496996
0.002496996
0.002496996
0.002496996
0.002526772
0.002526772
0.002526772
0.002526772
0.002526772
0.002532324
0.002532324
0.002532324
0.002532324
0.002532324
0.002531871
0.002531871
0.002531871
0.002531871
0.002531871
0.0025255
0.0025255
0.0025255
0.0025255
0.0025255
0.00248893
0.00248893
0.00248893
0.00248893
0.00248893
0.002490576
0.002490576
0.002490576
0.002490576
0.002490576
0.002520627
0.002520627
0.002520627
0.002520627
0.002520627
0.002526364
0.002526364
0.002526364
0.002526364
0.002526364
0.002526065
0.002526065
0.002526065
0.002526065
0.002526065
0.002517568
0.002517568
0.002517568
0.002517568
0.002517568
0.002487235
0.002487235
0.002487235
0.002487235
0.002487235
0.002487835
0.002487835
0.002487835
0.002487835
0.002487835
0.002518112
0.002518112
0.002518112
0.002518112
0.002518112
0.002523957
0.002523957
0.002523957
0.002523957
0.002523957
0.002523817
0.002523817
0.002523817
0.002523817
0.002523817
0.002517733
0.002517733
0.002517733
0.002517733
0.002517733
0.002487593
0.002487593
0.002487593
0.002487593
0.002487593
0.002487475
0.002487475
0.002487475
0.002487475
0.002487475
0.00251797
0.00251797
0.00251797
0.00251797
0.00251797
0.002526233
0.002526233
0.002526233
0.002526233
0.002526233
0.002526223
0.002526223
0.002526223
0.002526223
0.002526223
0.002520245
0.002520245
0.002520245
0.002520245
0.002520245
0.002490315
0.002490315
0.002490315
0.002490315
0.002490315
0.002489151
0.002489151
0.002489151
0.002489151
0.002489151
0.002525873
0.002525873
0.002525873
0.002525873
0.002525873
0.002532001
0.002532001
0.002532001
0.002532001
0.002532001
0.002532197
0.002532197
0.002532197
0.002532197
0.002532197
0.002526405
0.002526405
0.002526405
0.002526405
0.002526405
0.002496759
0.002496759
0.002496759
0.002496759
0.002496759
0.002493903
0.002493903
0.002493903
0.002493903
0.002493903
0.002525283
0.002525283
0.002525283
0.002525283
0.002525283
0.002531965
0.002531965
0.002531965
0.002531965
0.002531965
0.002533559
0.002533559
0.002533559
0.002533559
0.002533559
0.002528667
0.002528667
0.002528667
0.002528667
0.002528667
0.002493402
0.002493402
0.002493402
0.002493402
0.002493402
0.00247082
0.00247082
0.00247082
0.00247082
0.00247082
0.002463511
0.002463511
0.002463511
0.002463511
0.002463511
0.002481495
0.002481495
0.002481495
0.002481495
0.002481495
0.00251036
0.00251036
0.00251036
0.00251036
0.00251036
0.002514633
0.002514633
0.002514633
0.002514633
0.002514633
0.002512733
0.002512733
0.002512733
0.002512733
0.002512733
0.00250342
0.00250342
0.00250342
0.00250342
0.00250342
0.002475924
0.002475924
0.002475924
0.002475924
0.002475924
0.002478262
0.002478262
0.002478262
0.002478262
0.002478262
0.002506112
0.002506112
0.002506112
0.002506112
0.002506112
0.002513285
0.002513285
0.002513285
0.002513285
0.002513285
0.002512641
0.002512641
0.002512641
0.002512641
0.002512641
0.002504105
0.002504105
0.002504105
0.002504105
0.002504105
0.002476751
0.002476751
0.002476751
0.002476751
0.002476751
0.002480275
0.002480275
0.002480275
0.002480275
0.002480275
0.002508029
0.002508029
0.002508029
0.002508029
0.002508029
0.002515543
0.002515543
0.002515543
0.002515543
0.002515543
0.002515152
0.002515152
0.002515152
0.002515152
0.002515152
0.002506887
0.002506887
0.002506887
0.002506887
0.002506887
0.00248537
0.00248537
0.00248537
0.00248537
0.00248537
0.002485895
0.002485895
0.002485895
0.002485895
0.002485895
0.002513609
0.002513609
0.002513609
0.002513609
0.002513609
0.002521367
0.002521367
0.002521367
0.002521367
0.002521367
0.002521183
0.002521183
0.002521183
0.002521183
0.002521183
0.002513161
0.002513161
0.002513161
0.002513161
0.002513161
0.002485635
0.002485635
0.002485635
0.002485635
0.002485635
0.00248568
0.00248568
0.00248568
0.00248568
0.00248568
0.002513306
0.002513306
0.002513306
0.002513306
0.002513306
0.002521288
0.002521288
0.002521288
0.002521288
0.002521288
0.002515403
0.002515403
0.002515403
0.002515403
0.002515403
0.002507599
0.002507599
0.002507599
0.002507599
0.002507599
0.002480021
0.002480021
0.002480021
0.002480021
0.002480021
0.002479368
0.002479368
0.002479368
0.002479368
0.002479368
0.00250693
0.00250693
0.00250693
0.00250693
0.00250693
0.002512878
0.002512878
0.002512878
0.002512878
0.002512878
0.002513169
0.002513169
0.002513169
0.002513169
0.002513169
0.002505702
0.002505702
0.002505702
0.002505702
0.002505702
0.002478036
0.002478036
0.002478036
0.002478036
0.002478036
0.002476234
0.002476234
0.002476234
0.002476234
0.002476234
0.002503889
0.002503889
0.002503889
0.002503889
0.002503889
0.002512822
0.002512822
0.002512822
0.002512822
0.002512822
0.00251418
0.00251418
0.00251418
0.00251418
0.00251418
0.002507042
0.002507042
0.002507042
0.002507042
0.002507042
0.002478221
0.002478221
0.002478221
0.002478221
0.002478221
0.002463398
0.002463398
0.002463398
0.002463398
0.002463398
0.002457121
0.002457121
0.002457121
0.002457121
0.002457121
0.002471128
0.002471128
0.002471128
0.002471128
0.002471128
0.002499961
0.002499961
0.002499961
0.002499961
0.002499961
0.00250844
0.00250844
0.00250844
0.00250844
0.00250844
0.00251256
0.00251256
0.00251256
0.00251256
0.00251256
0.00250188
0.00250188
0.00250188
0.00250188
0.00250188
0.002475727
0.002475727
0.002475727
0.002475727
0.002475727
0.002477445
0.002477445
0.002477445
0.002477445
0.002477445
0.002505079
0.002505079
0.002505079
0.002505079
0.002505079
0.002513422
0.002513422
0.002513422
0.002513422
0.002513422
0.002512588
0.002512588
0.002512588
0.002512588
0.002512588
0.002502701
0.002502701
0.002502701
0.002502701
0.002502701
0.002476421
0.002476421
0.002476421
0.002476421
0.002476421
0.002477407
0.002477407
0.002477407
0.002477407
0.002477407
0.002498895
0.002498895
0.002498895
0.002498895
0.002498895
0.002507452
0.002507452
0.002507452
0.002507452
0.002507452
0.002506994
0.002506994
0.002506994
0.002506994
0.002506994
0.002497615
0.002497615
0.002497615
0.002497615
0.002497615
0.002470891
0.002470891
0.002470891
0.002470891
0.002470891
0.002469068
0.002469068
0.002469068
0.002469068
0.002469068
0.002495921
0.002495921
0.002495921
0.002495921
0.002495921
0.0025049
0.0025049
0.0025049
0.0025049
0.0025049
0.002504689
0.002504689
0.002504689
0.002504689
0.002504689
0.002495387
0.002495387
0.002495387
0.002495387
0.002495387
0.002468841
0.002468841
0.002468841
0.002468841
0.002468841
0.002469017
0.002469017
0.002469017
0.002469017
0.002469017
0.002495935
0.002495935
0.002495935
0.002495935
0.002495935
0.002504987
0.002504987
0.002504987
0.002504987
0.002504987
0.002505036
0.002505036
0.002505036
0.002505036
0.002505036
0.002498895
0.002498895
0.002498895
0.002498895
0.002498895
0.002471741
0.002471741
0.002471741
0.002471741
0.002471741
0.002471384
0.002471384
0.002471384
0.002471384
0.002471384
0.002497865
0.002497865
0.002497865
0.002497865
0.002497865
0.002507425
0.002507425
0.002507425
0.002507425
0.002507425
0.002515411
0.002515411
0.002515411
0.002515411
0.002515411
0.00250686
0.00250686
0.00250686
0.00250686
0.00250686
0.002479412
0.002479412
0.002479412
0.002479412
0.002479412
0.002478291
0.002478291
0.002478291
0.002478291
0.002478291
0.002504609
0.002504609
0.002504609
0.002504609
0.002504609
0.002519842
0.002519842
0.002519842
0.002519842
0.002519842
0.002521007
0.002521007
0.002521007
0.002521007
0.002521007
0.002511889
0.002511889
0.002511889
0.002511889
0.002511889
0.002483059
0.002483059
0.002483059
0.002483059
0.002483059
0.002469945
0.002469945
0.002469945
0.002469945
0.002469945
0.002466025
0.002466025
0.002466025
0.002466025
0.002466025
0.002477286
0.002477286
0.002477286
0.002477286
0.002477286
0.002505806
0.002505806
0.002505806
0.002505806
0.002505806
0.002516271
0.002516271
0.002516271
0.002516271
0.002516271
0.002514669
0.002514669
0.002514669
0.002514669
0.002514669
0.002498391
0.002498391
0.002498391
0.002498391
0.002498391
0.002472851
0.002472851
0.002472851
0.002472851
0.002472851
0.002474294
0.002474294
0.002474294
0.002474294
0.002474294
0.002502626
0.002502626
0.002502626
0.002502626
0.002502626
0.002511442
0.002511442
0.002511442
0.002511442
0.002511442
0.002503883
0.002503883
0.002503883
0.002503883
0.002503883
0.002493117
0.002493117
0.002493117
0.002493117
0.002493117
0.0024668
0.0024668
0.0024668
0.0024668
0.0024668
0.002467645
0.002467645
0.002467645
0.002467645
0.002467645
0.002495224
0.002495224
0.002495224
0.002495224
0.002495224
0.00250234
0.00250234
0.00250234
0.00250234
0.00250234
0.002501877
0.002501877
0.002501877
0.002501877
0.002501877
0.002491621
0.002491621
0.002491621
0.002491621
0.002491621
0.002464759
0.002464759
0.002464759
0.002464759
0.002464759
0.002465159
0.002465159
0.002465159
0.002465159
0.002465159
0.002491948
0.002491948
0.002491948
0.002491948
0.002491948
0.002501897
0.002501897
0.002501897
0.002501897
0.002501897
0.002501665
0.002501665
0.002501665
0.002501665
0.002501665
0.002491367
0.002491367
0.002491367
0.002491367
0.002491367
0.002464721
0.002464721
0.002464721
0.002464721
0.002464721
0.002466886
0.002466886
0.002466886
0.002466886
0.002466886
0.002493998
0.002493998
0.002493998
0.002493998
0.002493998
0.002503909
0.002503909
0.002503909
0.002503909
0.002503909
0.002503912
0.002503912
0.002503912
0.002503912
0.002503912
0.002494051
0.002494051
0.002494051
0.002494051
0.002494051
0.002471422
0.002471422
0.002471422
0.002471422
0.002471422
0.00247125
0.00247125
0.00247125
0.00247125
0.00247125
0.002497843
0.002497843
0.002497843
0.002497843
0.002497843
0.002508274
0.002508274
0.002508274
0.002508274
0.002508274
0.002508795
0.002508795
0.002508795
0.002508795
0.002508795
0.002499503
0.002499503
0.002499503
0.002499503
0.002499503
0.002471403
0.002471403
0.002471403
0.002471403
0.002471403
0.002470597
0.002470597
0.002470597
0.002470597
0.002470597
0.002496285
0.002496285
0.002496285
0.002496285
0.002496285
0.002507584
0.002507584
0.002507584
0.002507584
0.002507584
0.002503677
0.002503677
0.002503677
0.002503677
0.002503677
0.002492552
0.002492552
0.002492552
0.002492552
0.002492552
0.002464169
0.002464169
0.002464169
0.002464169
0.002464169
0.002453914
0.002453914
0.002453914
0.002453914
0.002453914
0.002448769
0.002448769
0.002448769
0.002448769
0.002448769
0.002456467
0.002456467
0.002456467
0.002456467
0.002456467
0.002485354
0.002485354
0.002485354
0.002485354
0.002485354
0.002496984
0.002496984
0.002496984
0.002496984
0.002496984
0.002495545
0.002495545
0.002495545
0.002495545
0.002495545
0.002483067
0.002483067
0.002483067
0.002483067
0.002483067
0.002457331
0.002457331
0.002457331
0.002457331
0.002457331
0.002458953
0.002458953
0.002458953
0.002458953
0.002458953
0.002487767
0.002487767
0.002487767
0.002487767
0.002487767
0.002497185
0.002497185
0.002497185
0.002497185
0.002497185
0.002496127
0.002496127
0.002496127
0.002496127
0.002496127
0.002486766
0.002486766
0.002486766
0.002486766
0.002486766
0.002459615
0.002459615
0.002459615
0.002459615
0.002459615
0.002460346
0.002460346
0.002460346
0.002460346
0.002460346
0.002488519
0.002488519
0.002488519
0.002488519
0.002488519
0.002498766
0.002498766
0.002498766
0.002498766
0.002498766
0.002503052
0.002503052
0.002503052
0.002503052
0.002503052
0.002492129
0.002492129
0.002492129
0.002492129
0.002492129
0.002464572
0.002464572
0.002464572
0.002464572
0.002464572
0.002464956
0.002464956
0.002464956
0.002464956
0.002464956
0.002492687
0.002492687
0.002492687
0.002492687
0.002492687
0.00250318
0.00250318
0.00250318
0.00250318
0.00250318
0.002502932
0.002502932
0.002502932
0.002502932
0.002502932
0.002492056
0.002492056
0.002492056
0.002492056
0.002492056
0.002464585
0.002464585
0.002464585
0.002464585
0.002464585
0.002464909
0.002464909
0.002464909
0.002464909
0.002464909
0.002487979
0.002487979
0.002487979
0.002487979
0.002487979
0.00249853
0.00249853
0.00249853
0.00249853
0.00249853
0.002498474
0.002498474
0.002498474
0.002498474
0.002498474
0.002487858
0.002487858
0.002487858
0.002487858
0.002487858
0.002459944
0.002459944
0.002459944
0.002459944
0.002459944
0.002457993
0.002457993
0.002457993
0.002457993
0.002457993
0.002485396
0.002485396
0.002485396
0.002485396
0.002485396
0.002496312
0.002496312
0.002496312
0.002496312
0.002496312
0.002496884
0.002496884
0.002496884
0.002496884
0.002496884
0.002487098
0.002487098
0.002487098
0.002487098
0.002487098
0.002458508
0.002458508
0.002458508
0.002458508
0.002458508
0.002457542
0.002457542
0.002457542
0.002457542
0.002457542
0.00248343
0.00248343
0.00248343
0.00248343
0.00248343
0.002495404
0.002495404
0.002495404
0.002495404
0.002495404
0.002496091
0.002496091
0.002496091
0.002496091
0.002496091
0.00248567
0.00248567
0.00248567
0.00248567
0.00248567
0.002456842
0.002456842
0.002456842
0.002456842
0.002456842
0.002448216
0.002448216
0.002448216
0.002448216
0.002448216
0.002443605
0.002443605
0.002443605
0.002443605
0.002443605
0.002452436
0.002452436
0.002452436
0.002452436
0.002452436
0.00248682
0.00248682
0.00248682
0.00248682
0.00248682
0.002499292
0.002499292
0.002499292
0.002499292
0.002499292
0.002498074
0.002498074
0.002498074
0.002498074
0.002498074
0.002485313
0.002485313
0.002485313
0.002485313
0.002485313
0.00245851
0.00245851
0.00245851
0.00245851
0.00245851
0.002459888
0.002459888
0.002459888
0.002459888
0.002459888
0.002489437
0.002489437
0.002489437
0.002489437
0.002489437
0.002499593
0.002499593
0.002499593
0.002499593
0.002499593
0.002498586
0.002498586
0.002498586
0.002498586
0.002498586
0.002486736
0.002486736
0.002486736
0.002486736
0.002486736
0.00245413
0.00245413
0.00245413
0.00245413
0.00245413
0.002454802
0.002454802
0.002454802
0.002454802
0.002454802
0.00248374
0.00248374
0.00248374
0.00248374
0.00248374
0.002494547
0.002494547
0.002494547
0.002494547
0.002494547
0.002494111
0.002494111
0.002494111
0.002494111
0.002494111
0.002480675
0.002480675
0.002480675
0.002480675
0.002480675
0.002452446
0.002452446
0.002452446
0.002452446
0.002452446
0.002452835
0.002452835
0.002452835
0.002452835
0.002452835
0.002481421
0.002481421
0.002481421
0.002481421
0.002481421
0.002492387
0.002492387
0.002492387
0.002492387
0.002492387
0.00249213
0.00249213
0.00249213
0.00249213
0.00249213
0.002480787
0.002480787
0.002480787
0.002480787
0.002480787
0.002452472
0.002452472
0.002452472
0.002452472
0.002452472
0.002452809
0.002452809
0.002452809
0.002452809
0.002452809
0.00248132
0.00248132
0.00248132
0.00248132
0.00248132
0.002494382
0.002494382
0.002494382
0.002494382
0.002494382
0.002494286
0.002494286
0.002494286
0.002494286
0.002494286
0.002483096
0.002483096
0.002483096
0.002483096
0.002483096
0.002454435
0.002454435
0.002454435
0.002454435
0.002454435
0.002454495
0.002454495
0.002454495
0.002454495
0.002454495
0.002487383
0.002487383
0.002487383
0.002487383
0.002487383
0.002498844
0.002498844
0.002498844
0.002498844
0.002498844
0.002499336
0.002499336
0.002499336
0.002499336
0.002499336
0.0024888
0.0024888
0.0024888
0.0024888
0.0024888
0.002459482
0.002459482
0.002459482
0.002459482
0.002459482
0.00245878
0.00245878
0.00245878
0.00245878
0.00245878
0.002485738
0.002485738
0.002485738
0.002485738
0.002485738
0.002497969
0.002497969
0.002497969
0.002497969
0.002497969
0.002498387
0.002498387
0.002498387
0.002498387
0.002498387
0.00248517
0.00248517
0.00248517
0.00248517
0.00248517
0.002450871
0.002450871
0.002450871
0.002450871
0.002450871
0.002443095
0.002443095
0.002443095
0.002443095
0.002443095
0.00243903
0.00243903
0.00243903
0.00243903
0.00243903
0.00244749
0.00244749
0.00244749
0.00244749
0.00244749
0.002477946
0.002477946
0.002477946
0.002477946
0.002477946
0.002489108
0.002489108
0.002489108
0.002489108
0.002489108
0.002488111
0.002488111
0.002488111
0.002488111
0.002488111
0.002475161
0.002475161
0.002475161
0.002475161
0.002475161
0.002447371
0.002447371
0.002447371
0.002447371
0.002447371
0.002448528
0.002448528
0.002448528
0.002448528
0.002448528
0.002478545
0.002478545
0.002478545
0.002478545
0.002478545
0.002489353
0.002489353
0.002489353
0.002489353
0.002489353
0.002488505
0.002488505
0.002488505
0.002488505
0.002488505
0.002476459
0.002476459
0.002476459
0.002476459
0.002476459
0.002447693
0.002447693
0.002447693
0.002447693
0.002447693
0.002450177
0.002450177
0.002450177
0.002450177
0.002450177
0.002479534
0.002479534
0.002479534
0.002479534
0.002479534
0.002490991
0.002490991
0.002490991
0.002490991
0.002490991
0.002490592
0.002490592
0.002490592
0.002490592
0.002490592
0.00247841
0.00247841
0.00247841
0.00247841
0.00247841
0.002454492
0.002454492
0.002454492
0.002454492
0.002454492
0.002455072
0.002455072
0.002455072
0.002455072
0.002455072
0.002484462
0.002484462
0.002484462
0.002484462
0.002484462
0.002495763
0.002495763
0.002495763
0.002495763
0.002495763
0.002495498
0.002495498
0.002495498
0.002495498
0.002495498
0.002483828
0.002483828
0.002483828
0.002483828
0.002483828
0.002454709
0.002454709
0.002454709
0.002454709
0.002454709
0.002454881
0.002454881
0.002454881
0.002454881
0.002454881
0.00248382
0.00248382
0.00248382
0.00248382
0.00248382
0.002495624
0.002495624
0.002495624
0.002495624
0.002495624
0.002490761
0.002490761
0.002490761
0.002490761
0.002490761
0.002478911
0.002478911
0.002478911
0.002478911
0.002478911
0.002449846
0.002449846
0.002449846
0.002449846
0.002449846
0.002450036
0.002450036
0.002450036
0.002450036
0.002450036
0.002479106
0.002479106
0.002479106
0.002479106
0.002479106
0.002488836
0.002488836
0.002488836
0.002488836
0.002488836
0.002489163
0.002489163
0.002489163
0.002489163
0.002489163
0.002477978
0.002477978
0.002477978
0.002477978
0.002477978
0.002448182
0.002448182
0.002448182
0.002448182
0.002448182
0.002447703
0.002447703
0.002447703
0.002447703
0.002447703
0.002475643
0.002475643
0.002475643
0.002475643
0.002475643
0.002488055
0.002488055
0.002488055
0.002488055
0.002488055
0.002488219
0.002488219
0.002488219
0.002488219
0.002488219
0.002474382
0.002474382
0.002474382
0.002474382
0.002474382
0.002444033
0.002444033
0.002444033
0.002444033
0.002444033
0.002438592
0.002438592
0.002438592
0.002438592
0.002438592
0.002435047
0.002435047
0.002435047
0.002435047
0.002435047
0.002443357
0.002443357
0.002443357
0.002443357
0.002443357
0.002474519
0.002474519
0.002474519
0.002474519
0.002474519
0.00248816
0.00248816
0.00248816
0.00248816
0.00248816
0.002492111
0.002492111
0.002492111
0.002492111
0.002492111
0.002479024
0.002479024
0.002479024
0.002479024
0.002479024
0.002450258
0.002450258
0.002450258
0.002450258
0.002450258
0.002451232
0.002451232
0.002451232
0.002451232
0.002451232
0.002481658
0.002481658
0.002481658
0.002481658
0.002481658
0.002493193
0.002493193
0.002493193
0.002493193
0.002493193
0.002492562
0.002492562
0.002492562
0.002492562
0.002492562
0.002480376
0.002480376
0.002480376
0.002480376
0.002480376
0.002451197
0.002451197
0.002451197
0.002451197
0.002451197
0.002451176
0.002451176
0.002451176
0.002451176
0.002451176
0.002475618
0.002475618
0.002475618
0.002475618
0.002475618
0.002487943
0.002487943
0.002487943
0.002487943
0.002487943
0.002487689
0.002487689
0.002487689
0.002487689
0.002487689
0.002474983
0.002474983
0.002474983
0.002474983
0.002474983
0.002446087
0.002446087
0.002446087
0.002446087
0.002446087
0.002444985
0.002444985
0.002444985
0.002444985
0.002444985
0.0024748
0.0024748
0.0024748
0.0024748
0.0024748
0.002486431
0.002486431
0.002486431
0.002486431
0.002486431
0.002486163
0.002486163
0.002486163
0.002486163
0.002486163
0.002474146
0.002474146
0.002474146
0.002474146
0.002474146
0.0024447
0.0024447
0.0024447
0.0024447
0.0024447
0.002444681
0.002444681
0.002444681
0.002444681
0.002444681
0.002473838
0.002473838
0.002473838
0.002473838
0.002473838
0.002486147
0.002486147
0.002486147
0.002486147
0.002486147
0.002485865
0.002485865
0.002485865
0.002485865
0.002485865
0.002475516
0.002475516
0.002475516
0.002475516
0.002475516
0.002446703
0.002446703
0.002446703
0.002446703
0.002446703
0.002447496
0.002447496
0.002447496
0.002447496
0.002447496
0.002476925
0.002476925
0.002476925
0.002476925
0.002476925
0.002488701
0.002488701
0.002488701
0.002488701
0.002488701
0.002495319
0.002495319
0.002495319
0.002495319
0.002495319
0.002483514
0.002483514
0.002483514
0.002483514
0.002483514
0.002453292
0.002453292
0.002453292
0.002453292
0.002453292
0.002453009
0.002453009
0.002453009
0.002453009
0.002453009
0.002481929
0.002481929
0.002481929
0.002481929
0.002481929
0.002498907
0.002498907
0.002498907
0.002498907
0.002498907
0.002498858
0.002498858
0.002498858
0.002498858
0.002498858
0.002484411
0.002484411
0.002484411
0.002484411
0.002484411
0.002453287
0.002453287
0.002453287
0.002453287
0.002453287
0.002446079
0.002446079
0.002446079
0.002446079
0.002446079
0.002445282
0.002445282
0.002445282
0.002445282
0.002445282
0.00245355
0.00245355
0.00245355
0.00245355
0.00245355
0.002485288
0.002485288
0.002485288
0.002485288
0.002485288
0.002499515
0.002499515
0.002499515
0.002499515
0.002499515
0.002498889
0.002498889
0.002498889
0.002498889
0.002498889
0.002481606
0.002481606
0.002481606
0.002481606
0.002481606
0.002452131
0.002452131
0.002452131
0.002452131
0.002452131
0.002452925
0.002452925
0.002452925
0.002452925
0.002452925
0.002483509
0.002483509
0.002483509
0.002483509
0.002483509
0.002495561
0.002495561
0.002495561
0.002495561
0.002495561
0.002488777
0.002488777
0.002488777
0.002488777
0.002488777
0.002476488
0.002476488
0.002476488
0.002476488
0.002476488
0.002447227
0.002447227
0.002447227
0.002447227
0.002447227
0.002446587
0.002446587
0.002446587
0.002446587
0.002446587
0.002475247
0.002475247
0.002475247
0.002475247
0.002475247
0.002486135
0.002486135
0.002486135
0.002486135
0.002486135
0.00248613
0.00248613
0.00248613
0.00248613
0.00248613
0.00247326
0.00247326
0.00247326
0.00247326
0.00247326
0.002443945
0.002443945
0.002443945
0.002443945
0.002443945
0.002444604
0.002444604
0.002444604
0.002444604
0.002444604
0.002474405
0.002474405
0.002474405
0.002474405
0.002474405
0.002486591
0.002486591
0.002486591
0.002486591
0.002486591
0.002486318
0.002486318
0.002486318
0.002486318
0.002486318
0.002473743
0.002473743
0.002473743
0.002473743
0.002473743
0.002444108
0.002444108
0.002444108
0.002444108
0.002444108
0.002445835
0.002445835
0.002445835
0.002445835
0.002445835
0.002475444
0.002475444
0.002475444
0.002475444
0.002475444
0.002487921
0.002487921
0.002487921
0.002487921
0.002487921
0.002487378
0.002487378
0.002487378
0.002487378
0.002487378
0.002473861
0.002473861
0.002473861
0.002473861
0.002473861
0.00244962
0.00244962
0.00244962
0.00244962
0.00244962
0.002451036
0.002451036
0.002451036
0.002451036
0.002451036
0.002480601
0.002480601
0.002480601
0.002480601
0.002480601
0.002492498
0.002492498
0.002492498
0.002492498
0.002492498
0.002492349
0.002492349
0.002492349
0.002492349
0.002492349
0.002479767
0.002479767
0.002479767
0.002479767
0.002479767
0.002449463
0.002449463
0.002449463
0.002449463
0.002449463
0.00244938
0.00244938
0.00244938
0.00244938
0.00244938
0.00247897
0.00247897
0.00247897
0.00247897
0.00247897
0.002491572
0.002491572
0.002491572
0.002491572
0.002491572
0.002487094
0.002487094
0.002487094
0.002487094
0.002487094
0.002472095
0.002472095
0.002472095
0.002472095
0.002472095
0.002440548
0.002440548
0.002440548
0.002440548
0.002440548
0.002433427
0.002433427
0.002433427
0.002433427
0.002433427
0.002430747
0.002430747
0.002430747
0.002430747
0.002430747
0.002437271
0.002437271
0.002437271
0.002437271
0.002437271
0.002469206
0.002469206
0.002469206
0.002469206
0.002469206
0.002483993
0.002483993
0.002483993
0.002483993
0.002483993
0.002483616
0.002483616
0.002483616
0.002483616
0.002483616
0.002470259
0.002470259
0.002470259
0.002470259
0.002470259
0.002440437