/*--------------------------------*- C++ -*----------------------------------*\
| =========                 |                                                 |
| \\      /  F ield         | OpenFOAM: The Open Source CFD Toolbox           |
|  \\    /   O peration     | Version:  4.0                                   |
|   \\  /    A nd           | Web:      www.OpenFOAM.org                      |
|    \\/     M anipulation  |                                                 |
\*---------------------------------------------------------------------------*/
FoamFile
{
    version     2.0;
    format      ascii;
    class       volScalarField;
    location    "60/electrolyte";
    object      etaOhmic;
}
// * * * * * * * * * * * * * * * * * * * * * * * * * * * * * * * * * * * * * //

dimensions      [1 2 -3 0 0 -1 0];

internalField   nonuniform List<scalar> 
4840
(
0.004880752
0.004880752
0.004880752
0.004880752
0.004880752
0.004869631
0.004869631
0.004869631
0.004869631
0.004869631
0.004853182
0.004853182
0.004853182
0.004853182
0.004853182
0.004847791
0.004847791
0.004847791
0.004847791
0.004847791
0.004855507
0.004855507
0.004855507
0.004855507
0.004855507
0.0048608
0.0048608
0.0048608
0.0048608
0.0048608
0.0048811
0.0048811
0.0048811
0.0048811
0.0048811
0.004882669
0.004882669
0.004882669
0.004882669
0.004882669
0.004866268
0.004866268
0.004866268
0.004866268
0.004866268
0.004887164
0.004887164
0.004887164
0.004887164
0.004887164
0.004888615
0.004888615
0.004888615
0.004888615
0.004888615
0.004878404
0.004878404
0.004878404
0.004878404
0.004878404
0.0048942
0.0048942
0.0048942
0.0048942
0.0048942
0.004891723
0.004891723
0.004891723
0.004891723
0.004891723
0.004874599
0.004874599
0.004874599
0.004874599
0.004874599
0.004893843
0.004893843
0.004893843
0.004893843
0.004893843
0.004891898
0.004891898
0.004891898
0.004891898
0.004891898
0.004878199
0.004878199
0.004878199
0.004878199
0.004878199
0.004894594
0.004894594
0.004894594
0.004894594
0.004894594
0.004892942
0.004892942
0.004892942
0.004892942
0.004892942
0.004875944
0.004875944
0.004875944
0.004875944
0.004875944
0.004892356
0.004892356
0.004892356
0.004892356
0.004892356
0.004892211
0.004892211
0.004892211
0.004892211
0.004892211
0.004875712
0.004875712
0.004875712
0.004875712
0.004875712
0.004892565
0.004892565
0.004892565
0.004892565
0.004892565
0.004894718
0.004894718
0.004894718
0.004894718
0.004894718
0.004878513
0.004878513
0.004878513
0.004878513
0.004878513
0.004892186
0.004892186
0.004892186
0.004892186
0.004892186
0.004893822
0.004893822
0.004893822
0.004893822
0.004893822
0.004874356
0.004874356
0.004874356
0.004874356
0.004874356
0.004891635
0.004891635
0.004891635
0.004891635
0.004891635
0.004894138
0.004894138
0.004894138
0.004894138
0.004894138
0.004878544
0.004878544
0.004878544
0.004878544
0.004878544
0.004888735
0.004888735
0.004888735
0.004888735
0.004888735
0.004887115
0.004887115
0.004887115
0.004887115
0.004887115
0.004866216
0.004866216
0.004866216
0.004866216
0.004866216
0.004882879
0.004882879
0.004882879
0.004882879
0.004882879
0.004881624
0.004881624
0.004881624
0.004881624
0.004881624
0.004861374
0.004861374
0.004861374
0.004861374
0.004861374
0.004855649
0.004855649
0.004855649
0.004855649
0.004855649
0.004846982
0.004846982
0.004846982
0.004846982
0.004846982
0.004852443
0.004852443
0.004852443
0.004852443
0.004852443
0.004869374
0.004869374
0.004869374
0.004869374
0.004869374
0.004881334
0.004881334
0.004881334
0.004881334
0.004881334
0.004901315
0.004901315
0.004901315
0.004901315
0.004901315
0.004941303
0.004941303
0.004941303
0.004941303
0.004941303
0.004978656
0.004978656
0.004978656
0.004978656
0.004978656
0.004986721
0.004986721
0.004986721
0.004986721
0.004986721
0.004978618
0.004978618
0.004978618
0.004978618
0.004978618
0.00498151
0.00498151
0.00498151
0.00498151
0.00498151
0.004928382
0.004928382
0.004928382
0.004928382
0.004928382
0.004948906
0.004948906
0.004948906
0.004948906
0.004948906
0.004996017
0.004996017
0.004996017
0.004996017
0.004996017
0.005003902
0.005003902
0.005003902
0.005003902
0.005003902
0.005004928
0.005004928
0.005004928
0.005004928
0.005004928
0.004999728
0.004999728
0.004999728
0.004999728
0.004999728
0.004948164
0.004948164
0.004948164
0.004948164
0.004948164
0.004949699
0.004949699
0.004949699
0.004949699
0.004949699
0.004999443
0.004999443
0.004999443
0.004999443
0.004999443
0.005006545
0.005006545
0.005006545
0.005006545
0.005006545
0.005006532
0.005006532
0.005006532
0.005006532
0.005006532
0.005000751
0.005000751
0.005000751
0.005000751
0.005000751
0.004950521
0.004950521
0.004950521
0.004950521
0.004950521
0.004949233
0.004949233
0.004949233
0.004949233
0.004949233
0.004999636
0.004999636
0.004999636
0.004999636
0.004999636
0.005006897
0.005006897
0.005006897
0.005006897
0.005006897
0.005006671
0.005006671
0.005006671
0.005006671
0.005006671
0.004999328
0.004999328
0.004999328
0.004999328
0.004999328
0.004949108
0.004949108
0.004949108
0.004949108
0.004949108
0.00495073
0.00495073
0.00495073
0.00495073
0.00495073
0.005000956
0.005000956
0.005000956
0.005000956
0.005000956
0.005006659
0.005006659
0.005006659
0.005006659
0.005006659
0.005006425
0.005006425
0.005006425
0.005006425
0.005006425
0.004999098
0.004999098
0.004999098
0.004999098
0.004999098
0.004949528
0.004949528
0.004949528
0.004949528
0.004949528
0.004947826
0.004947826
0.004947826
0.004947826
0.004947826
0.004999474
0.004999474
0.004999474
0.004999474
0.004999474
0.005004785
0.005004785
0.005004785
0.005004785
0.005004785
0.00500353
0.00500353
0.00500353
0.00500353
0.00500353
0.004995555
0.004995555
0.004995555
0.004995555
0.004995555
0.004948681
0.004948681
0.004948681
0.004948681
0.004948681
0.004928512
0.004928512
0.004928512
0.004928512
0.004928512
0.004981512
0.004981512
0.004981512
0.004981512
0.004981512
0.004978256
0.004978256
0.004978256
0.004978256
0.004978256
0.004985882
0.004985882
0.004985882
0.004985882
0.004985882
0.004978164
0.004978164
0.004978164
0.004978164
0.004978164
0.004941221
0.004941221
0.004941221
0.004941221
0.004941221
0.004901752
0.004901752
0.004901752
0.004901752
0.004901752
0.004919863
0.004919863
0.004919863
0.004919863
0.004919863
0.004956305
0.004956305
0.004956305
0.004956305
0.004956305
0.004989425
0.004989425
0.004989425
0.004989425
0.004989425
0.004977122
0.004977122
0.004977122
0.004977122
0.004977122
0.004955423
0.004955423
0.004955423
0.004955423
0.004955423
0.004965931
0.004965931
0.004965931
0.004965931
0.004965931
0.004925824
0.004925824
0.004925824
0.004925824
0.004925824
0.004946461
0.004946461
0.004946461
0.004946461
0.004946461
0.004984491
0.004984491
0.004984491
0.004984491
0.004984491
0.004977511
0.004977511
0.004977511
0.004977511
0.004977511
0.004974922
0.004974922
0.004974922
0.004974922
0.004974922
0.004983881
0.004983881
0.004983881
0.004983881
0.004983881
0.004941331
0.004941331
0.004941331
0.004941331
0.004941331
0.004941527
0.004941527
0.004941527
0.004941527
0.004941527
0.00498325
0.00498325
0.00498325
0.00498325
0.00498325
0.004976873
0.004976873
0.004976873
0.004976873
0.004976873
0.004975686
0.004975686
0.004975686
0.004975686
0.004975686
0.004984345
0.004984345
0.004984345
0.004984345
0.004984345
0.00494247
0.00494247
0.00494247
0.00494247
0.00494247
0.004940993
0.004940993
0.004940993
0.004940993
0.004940993
0.004982917
0.004982917
0.004982917
0.004982917
0.004982917
0.004975949
0.004975949
0.004975949
0.004975949
0.004975949
0.004975816
0.004975816
0.004975816
0.004975816
0.004975816
0.004982679
0.004982679
0.004982679
0.004982679
0.004982679
0.004940863
0.004940863
0.004940863
0.004940863
0.004940863
0.004942577
0.004942577
0.004942577
0.004942577
0.004942577
0.004984602
0.004984602
0.004984602
0.004984602
0.004984602
0.004975842
0.004975842
0.004975842
0.004975842
0.004975842
0.004976726
0.004976726
0.004976726
0.004976726
0.004976726
0.004982823
0.004982823
0.004982823
0.004982823
0.004982823
0.004941248
0.004941248
0.004941248
0.004941248
0.004941248
0.004941458
0.004941458
0.004941458
0.004941458
0.004941458
0.004983858
0.004983858
0.004983858
0.004983858
0.004983858
0.004974789
0.004974789
0.004974789
0.004974789
0.004974789
0.004977097
0.004977097
0.004977097
0.004977097
0.004977097
0.004983979
0.004983979
0.004983979
0.004983979
0.004983979
0.004946168
0.004946168
0.004946168
0.004946168
0.004946168
0.004925771
0.004925771
0.004925771
0.004925771
0.004925771
0.004965715
0.004965715
0.004965715
0.004965715
0.004965715
0.004954782
0.004954782
0.004954782
0.004954782
0.004954782
0.004975864
0.004975864
0.004975864
0.004975864
0.004975864
0.004987765
0.004987765
0.004987765
0.004987765
0.004987765
0.004955198
0.004955198
0.004955198
0.004955198
0.004955198
0.004919131
0.004919131
0.004919131
0.004919131
0.004919131
0.004919555
0.004919555
0.004919555
0.004919555
0.004919555
0.004944445
0.004944445
0.004944445
0.004944445
0.004944445
0.00497832
0.00497832
0.00497832
0.00497832
0.00497832
0.004961766
0.004961766
0.004961766
0.004961766
0.004961766
0.004933375
0.004933375
0.004933375
0.004933375
0.004933375
0.004948959
0.004948959
0.004948959
0.004948959
0.004948959
0.00490953
0.00490953
0.00490953
0.00490953
0.00490953
0.00492959
0.00492959
0.00492959
0.00492959
0.00492959
0.004966435
0.004966435
0.004966435
0.004966435
0.004966435
0.00495478
0.00495478
0.00495478
0.00495478
0.00495478
0.004951265
0.004951265
0.004951265
0.004951265
0.004951265
0.004964754
0.004964754
0.004964754
0.004964754
0.004964754
0.004922192
0.004922192
0.004922192
0.004922192
0.004922192
0.004928212
0.004928212
0.004928212
0.004928212
0.004928212
0.004966193
0.004966193
0.004966193
0.004966193
0.004966193
0.004953869
0.004953869
0.004953869
0.004953869
0.004953869
0.004952718
0.004952718
0.004952718
0.004952718
0.004952718
0.004966593
0.004966593
0.004966593
0.004966593
0.004966593
0.004925968
0.004925968
0.004925968
0.004925968
0.004925968
0.004926786
0.004926786
0.004926786
0.004926786
0.004926786
0.004965971
0.004965971
0.004965971
0.004965971
0.004965971
0.004953152
0.004953152
0.004953152
0.004953152
0.004953152
0.004953075
0.004953075
0.004953075
0.004953075
0.004953075
0.004965799
0.004965799
0.004965799
0.004965799
0.004965799
0.004926674
0.004926674
0.004926674
0.004926674
0.004926674
0.004926017
0.004926017
0.004926017
0.004926017
0.004926017
0.004966901
0.004966901
0.004966901
0.004966901
0.004966901
0.004953033
0.004953033
0.004953033
0.004953033
0.004953033
0.004953807
0.004953807
0.004953807
0.004953807
0.004953807
0.004966
0.004966
0.004966
0.004966
0.004966
0.004928136
0.004928136
0.004928136
0.004928136
0.004928136
0.004922567
0.004922567
0.004922567
0.004922567
0.004922567
0.004965073
0.004965073
0.004965073
0.004965073
0.004965073
0.004951265
0.004951265
0.004951265
0.004951265
0.004951265
0.004954645
0.004954645
0.004954645
0.004954645
0.004954645
0.004966377
0.004966377
0.004966377
0.004966377
0.004966377
0.004929658
0.004929658
0.004929658
0.004929658
0.004929658
0.004909731
0.004909731
0.004909731
0.004909731
0.004909731
0.004949268
0.004949268
0.004949268
0.004949268
0.004949268
0.004933304
0.004933304
0.004933304
0.004933304
0.004933304
0.004961247
0.004961247
0.004961247
0.004961247
0.004961247
0.004977196
0.004977196
0.004977196
0.004977196
0.004977196
0.004943324
0.004943324
0.004943324
0.004943324
0.004943324
0.004918249
0.004918249
0.004918249
0.004918249
0.004918249
0.004903771
0.004903771
0.004903771
0.004903771
0.004903771
0.004932719
0.004932719
0.004932719
0.004932719
0.004932719
0.004963761
0.004963761
0.004963761
0.004963761
0.004963761
0.004946614
0.004946614
0.004946614
0.004946614
0.004946614
0.004918106
0.004918106
0.004918106
0.004918106
0.004918106
0.00493179
0.00493179
0.00493179
0.00493179
0.00493179
0.004898978
0.004898978
0.004898978
0.004898978
0.004898978
0.00491704
0.00491704
0.00491704
0.00491704
0.00491704
0.004949753
0.004949753
0.004949753
0.004949753
0.004949753
0.004937796
0.004937796
0.004937796
0.004937796
0.004937796
0.004934255
0.004934255
0.004934255
0.004934255
0.004934255
0.004945115
0.004945115
0.004945115
0.004945115
0.004945115
0.004910766
0.004910766
0.004910766
0.004910766
0.004910766
0.004917179
0.004917179
0.004917179
0.004917179
0.004917179
0.004948894
0.004948894
0.004948894
0.004948894
0.004948894
0.004936295
0.004936295
0.004936295
0.004936295
0.004936295
0.004935306
0.004935306
0.004935306
0.004935306
0.004935306
0.004947397
0.004947397
0.004947397
0.004947397
0.004947397
0.00491328
0.00491328
0.00491328
0.00491328
0.00491328
0.004915025
0.004915025
0.004915025
0.004915025
0.004915025
0.004947742
0.004947742
0.004947742
0.004947742
0.004947742
0.004935159
0.004935159
0.004935159
0.004935159
0.004935159
0.004935087
0.004935087
0.004935087
0.004935087
0.004935087
0.00494771
0.00494771
0.00494771
0.00494771
0.00494771
0.004915315
0.004915315
0.004915315
0.004915315
0.004915315
0.004913239
0.004913239
0.004913239
0.004913239
0.004913239
0.004947401
0.004947401
0.004947401
0.004947401
0.004947401
0.004935429
0.004935429
0.004935429
0.004935429
0.004935429
0.00493619
0.00493619
0.00493619
0.00493619
0.00493619
0.004948932
0.004948932
0.004948932
0.004948932
0.004948932
0.004917252
0.004917252
0.004917252
0.004917252
0.004917252
0.004910768
0.004910768
0.004910768
0.004910768
0.004910768
0.004945133
0.004945133
0.004945133
0.004945133
0.004945133
0.004934308
0.004934308
0.004934308
0.004934308
0.004934308
0.004937742
0.004937742
0.004937742
0.004937742
0.004937742
0.004949905
0.004949905
0.004949905
0.004949905
0.004949905
0.004917395
0.004917395
0.004917395
0.004917395
0.004917395
0.004899187
0.004899187
0.004899187
0.004899187
0.004899187
0.004931921
0.004931921
0.004931921
0.004931921
0.004931921
0.004918022
0.004918022
0.004918022
0.004918022
0.004918022
0.004946483
0.004946483
0.004946483
0.004946483
0.004946483
0.004963803
0.004963803
0.004963803
0.004963803
0.004963803
0.004932958
0.004932958
0.004932958
0.004932958
0.004932958
0.004903741
0.004903741
0.004903741
0.004903741
0.004903741
0.004893397
0.004893397
0.004893397
0.004893397
0.004893397
0.004923246
0.004923246
0.004923246
0.004923246
0.004923246
0.004949124
0.004949124
0.004949124
0.004949124
0.004949124
0.004933966
0.004933966
0.004933966
0.004933966
0.004933966
0.004905735
0.004905735
0.004905735
0.004905735
0.004905735
0.004919228
0.004919228
0.004919228
0.004919228
0.004919228
0.004886935
0.004886935
0.004886935
0.004886935
0.004886935
0.004906758
0.004906758
0.004906758
0.004906758
0.004906758
0.004935795
0.004935795
0.004935795
0.004935795
0.004935795
0.004924262
0.004924262
0.004924262
0.004924262
0.004924262
0.004919261
0.004919261
0.004919261
0.004919261
0.004919261
0.004929524
0.004929524
0.004929524
0.004929524
0.004929524
0.00489816
0.00489816
0.00489816
0.00489816
0.00489816
0.004905513
0.004905513
0.004905513
0.004905513
0.004905513
0.004933944
0.004933944
0.004933944
0.004933944
0.004933944
0.004921264
0.004921264
0.004921264
0.004921264
0.004921264
0.00492012
0.00492012
0.00492012
0.00492012
0.00492012
0.004931773
0.004931773
0.004931773
0.004931773
0.004931773
0.004900542
0.004900542
0.004900542
0.004900542
0.004900542
0.004903021
0.004903021
0.004903021
0.004903021
0.004903021
0.004932857
0.004932857
0.004932857
0.004932857
0.004932857
0.004920455
0.004920455
0.004920455
0.004920455
0.004920455
0.004920374
0.004920374
0.004920374
0.004920374
0.004920374
0.004932847
0.004932847
0.004932847
0.004932847
0.004932847
0.004903141
0.004903141
0.004903141
0.004903141
0.004903141
0.004900524
0.004900524
0.004900524
0.004900524
0.004900524
0.004931816
0.004931816
0.004931816
0.004931816
0.004931816
0.004920319
0.004920319
0.004920319
0.004920319
0.004920319
0.004921247
0.004921247
0.004921247
0.004921247
0.004921247
0.004933588
0.004933588
0.004933588
0.004933588
0.004933588
0.004905809
0.004905809
0.004905809
0.004905809
0.004905809
0.004898403
0.004898403
0.004898403
0.004898403
0.004898403
0.004929797
0.004929797
0.004929797
0.004929797
0.004929797
0.00491954
0.00491954
0.00491954
0.00491954
0.00491954
0.004923554
0.004923554
0.004923554
0.004923554
0.004923554
0.004935354
0.004935354
0.004935354
0.004935354
0.004935354
0.004906594
0.004906594
0.004906594
0.004906594
0.004906594
0.004886567
0.004886567
0.004886567
0.004886567
0.004886567
0.004918663
0.004918663
0.004918663
0.004918663
0.004918663
0.00490517
0.00490517
0.00490517
0.00490517
0.00490517
0.00493234
0.00493234
0.00493234
0.00493234
0.00493234
0.004947801
0.004947801
0.004947801
0.004947801
0.004947801
0.004922293
0.004922293
0.004922293
0.004922293
0.004922293
0.004892359
0.004892359
0.004892359
0.004892359
0.004892359
0.004882213
0.004882213
0.004882213
0.004882213
0.004882213
0.00491283
0.00491283
0.00491283
0.00491283
0.00491283
0.004934126
0.004934126
0.004934126
0.004934126
0.004934126
0.004921056
0.004921056
0.004921056
0.004921056
0.004921056
0.004893749
0.004893749
0.004893749
0.004893749
0.004893749
0.00490551
0.00490551
0.00490551
0.00490551
0.00490551
0.004875096
0.004875096
0.004875096
0.004875096
0.004875096
0.004896469
0.004896469
0.004896469
0.004896469
0.004896469
0.004921363
0.004921363
0.004921363
0.004921363
0.004921363
0.004910857
0.004910857
0.004910857
0.004910857
0.004910857
0.00490606
0.00490606
0.00490606
0.00490606
0.00490606
0.004915994
0.004915994
0.004915994
0.004915994
0.004915994
0.00488665
0.00488665
0.00488665
0.00488665
0.00488665
0.004893907
0.004893907
0.004893907
0.004893907
0.004893907
0.004920203
0.004920203
0.004920203
0.004920203
0.004920203
0.004908773
0.004908773
0.004908773
0.004908773
0.004908773
0.004908385
0.004908385
0.004908385
0.004908385
0.004908385
0.00491972
0.00491972
0.00491972
0.00491972
0.00491972
0.004890669
0.004890669
0.004890669
0.004890669
0.004890669
0.004892394
0.004892394
0.004892394
0.004892394
0.004892394
0.004920101
0.004920101
0.004920101
0.004920101
0.004920101
0.004908804
0.004908804
0.004908804
0.004908804
0.004908804
0.004908709
0.004908709
0.004908709
0.004908709
0.004908709
0.004920064
0.004920064
0.004920064
0.004920064
0.004920064
0.004892495
0.004892495
0.004892495
0.004892495
0.004892495
0.004890521
0.004890521
0.004890521
0.004890521
0.004890521
0.004918895
0.004918895
0.004918895
0.004918895
0.004918895
0.004907708
0.004907708
0.004907708
0.004907708
0.004907708
0.004908723
0.004908723
0.004908723
0.004908723
0.004908723
0.004920156
0.004920156
0.004920156
0.004920156
0.004920156
0.004894006
0.004894006
0.004894006
0.004894006
0.004894006
0.004886428
0.004886428
0.004886428
0.004886428
0.004886428
0.004915804
0.004915804
0.004915804
0.004915804
0.004915804
0.004905891
0.004905891
0.004905891
0.004905891
0.004905891
0.00491058
0.00491058
0.00491058
0.00491058
0.00491058
0.00492138
0.00492138
0.00492138
0.00492138
0.00492138
0.004896812
0.004896812
0.004896812
0.004896812
0.004896812
0.004875208
0.004875208
0.004875208
0.004875208
0.004875208
0.004905383
0.004905383
0.004905383
0.004905383
0.004905383
0.004893492
0.004893492
0.004893492
0.004893492
0.004893492
0.004920603
0.004920603
0.004920603
0.004920603
0.004920603
0.004934111
0.004934111
0.004934111
0.004934111
0.004934111
0.004913243
0.004913243
0.004913243
0.004913243
0.004913243
0.004882377
0.004882377
0.004882377
0.004882377
0.004882377
0.004872937
0.004872937
0.004872937
0.004872937
0.004872937
0.004905187
0.004905187
0.004905187
0.004905187
0.004905187
0.004922685
0.004922685
0.004922685
0.004922685
0.004922685
0.004911552
0.004911552
0.004911552
0.004911552
0.004911552
0.004886167
0.004886167
0.004886167
0.004886167
0.004886167
0.004895652
0.004895652
0.004895652
0.004895652
0.004895652
0.004866876
0.004866876
0.004866876
0.004866876
0.004866876
0.004889006
0.004889006
0.004889006
0.004889006
0.004889006
0.004910833
0.004910833
0.004910833
0.004910833
0.004910833
0.004901325
0.004901325
0.004901325
0.004901325
0.004901325
0.004896104
0.004896104
0.004896104
0.004896104
0.004896104
0.004906395
0.004906395
0.004906395
0.004906395
0.004906395
0.00487693
0.00487693
0.00487693
0.00487693
0.00487693
0.00488318
0.00488318
0.00488318
0.00488318
0.00488318
0.004908725
0.004908725
0.004908725
0.004908725
0.004908725
0.004898253
0.004898253
0.004898253
0.004898253
0.004898253
0.004897121
0.004897121
0.004897121
0.004897121
0.004897121
0.004908667
0.004908667
0.004908667
0.004908667
0.004908667
0.00488081
0.00488081
0.00488081
0.00488081
0.00488081
0.004880809
0.004880809
0.004880809
0.004880809
0.004880809
0.004907122
0.004907122
0.004907122
0.004907122
0.004907122
0.004897495
0.004897495
0.004897495
0.004897495
0.004897495
0.004897407
0.004897407
0.004897407
0.004897407
0.004897407
0.004907174
0.004907174
0.004907174
0.004907174
0.004907174
0.00488097
0.00488097
0.00488097
0.00488097
0.00488097
0.004880667
0.004880667
0.004880667
0.004880667
0.004880667
0.004908642
0.004908642
0.004908642
0.004908642
0.004908642
0.004897222
0.004897222
0.004897222
0.004897222
0.004897222
0.004898221
0.004898221
0.004898221
0.004898221
0.004898221
0.004908765
0.004908765
0.004908765
0.004908765
0.004908765
0.004883341
0.004883341
0.004883341
0.004883341
0.004883341
0.004876805
0.004876805
0.004876805
0.004876805
0.004876805
0.004906314
0.004906314
0.004906314
0.004906314
0.004906314
0.004896076
0.004896076
0.004896076
0.004896076
0.004896076
0.004901204
0.004901204
0.004901204
0.004901204
0.004901204
0.004911027
0.004911027
0.004911027
0.004911027
0.004911027
0.0048895
0.0048895
0.0048895
0.0048895
0.0048895
0.004867123
0.004867123
0.004867123
0.004867123
0.004867123
0.004895602
0.004895602
0.004895602
0.004895602
0.004895602
0.004885951
0.004885951
0.004885951
0.004885951
0.004885951
0.004911176
0.004911176
0.004911176
0.004911176
0.004911176
0.004922665
0.004922665
0.004922665
0.004922665
0.004922665
0.004905651
0.004905651
0.004905651
0.004905651
0.004905651
0.004873404
0.004873404
0.004873404
0.004873404
0.004873404
0.004864319
0.004864319
0.004864319
0.004864319
0.004864319
0.004897817
0.004897817
0.004897817
0.004897817
0.004897817
0.004910945
0.004910945
0.004910945
0.004910945
0.004910945
0.004901101
0.004901101
0.004901101
0.004901101
0.004901101
0.004878001
0.004878001
0.004878001
0.004878001
0.004878001
0.004885592
0.004885592
0.004885592
0.004885592
0.004885592
0.004858246
0.004858246
0.004858246
0.004858246
0.004858246
0.004879948
0.004879948
0.004879948
0.004879948
0.004879948
0.004899994
0.004899994
0.004899994
0.004899994
0.004899994
0.00489114
0.00489114
0.00489114
0.00489114
0.00489114
0.004886199
0.004886199
0.004886199
0.004886199
0.004886199
0.004896774
0.004896774
0.004896774
0.004896774
0.004896774
0.00486884
0.00486884
0.00486884
0.00486884
0.00486884
0.004873685
0.004873685
0.004873685
0.004873685
0.004873685
0.004898669
0.004898669
0.004898669
0.004898669
0.004898669
0.004889156
0.004889156
0.004889156
0.004889156
0.004889156
0.004888291
0.004888291
0.004888291
0.004888291
0.004888291
0.004900241
0.004900241
0.004900241
0.004900241
0.004900241
0.004873609
0.004873609
0.004873609
0.004873609
0.004873609
0.004872345
0.004872345
0.004872345
0.004872345
0.004872345
0.004898133
0.004898133
0.004898133
0.004898133
0.004898133
0.004889529
0.004889529
0.004889529
0.004889529
0.004889529
0.004889476
0.004889476
0.004889476
0.004889476
0.004889476
0.004898266
0.004898266
0.004898266
0.004898266
0.004898266
0.004872588
0.004872588
0.004872588
0.004872588
0.004872588
0.004873502
0.004873502
0.004873502
0.004873502
0.004873502
0.004901
0.004901
0.004901
0.004901
0.004901
0.004889169
0.004889169
0.004889169
0.004889169
0.004889169
0.004889139
0.004889139
0.004889139
0.004889139
0.004889139
0.004898803
0.004898803
0.004898803
0.004898803
0.004898803
0.004873886
0.004873886
0.004873886
0.004873886
0.004873886
0.004868812
0.004868812
0.004868812
0.004868812
0.004868812
0.00489677
0.00489677
0.00489677
0.00489677
0.00489677
0.004886285
0.004886285
0.004886285
0.004886285
0.004886285
0.004891167
0.004891167
0.004891167
0.004891167
0.004891167
0.004900344
0.004900344
0.004900344
0.004900344
0.004900344
0.004880527
0.004880527
0.004880527
0.004880527
0.004880527
0.004858676
0.004858676
0.004858676
0.004858676
0.004858676
0.00488563
0.00488563
0.00488563
0.00488563
0.00488563
0.004877829
0.004877829
0.004877829
0.004877829
0.004877829
0.004900836
0.004900836
0.004900836
0.004900836
0.004900836
0.004910959
0.004910959
0.004910959
0.004910959
0.004910959
0.00489835
0.00489835
0.00489835
0.00489835
0.00489835
0.00486504
0.00486504
0.00486504
0.00486504
0.00486504
0.00485635
0.00485635
0.00485635
0.00485635
0.00485635
0.004890359
0.004890359
0.004890359
0.004890359
0.004890359
0.004901124
0.004901124
0.004901124
0.004901124
0.004901124
0.00489261
0.00489261
0.00489261
0.00489261
0.00489261
0.004872859
0.004872859
0.004872859
0.004872859
0.004872859
0.004878555
0.004878555
0.004878555
0.004878555
0.004878555
0.004852669
0.004852669
0.004852669
0.004852669
0.004852669
0.00487362
0.00487362
0.00487362
0.00487362
0.00487362
0.004892758
0.004892758
0.004892758
0.004892758
0.004892758
0.004883923
0.004883923
0.004883923
0.004883923
0.004883923
0.004879601
0.004879601
0.004879601
0.004879601
0.004879601
0.004890259
0.004890259
0.004890259
0.004890259
0.004890259
0.004862967
0.004862967
0.004862967
0.004862967
0.004862967
0.004866423
0.004866423
0.004866423
0.004866423
0.004866423
0.004890288
0.004890288
0.004890288
0.004890288
0.004890288
0.004881448
0.004881448
0.004881448
0.004881448
0.004881448
0.004880992
0.004880992
0.004880992
0.004880992
0.004880992
0.004892899
0.004892899
0.004892899
0.004892899
0.004892899
0.004865498
0.004865498
0.004865498
0.004865498
0.004865498
0.004864071
0.004864071
0.004864071
0.004864071
0.004864071
0.004889488
0.004889488
0.004889488
0.004889488
0.004889488
0.004881265
0.004881265
0.004881265
0.004881265
0.004881265
0.00488125
0.00488125
0.00488125
0.00488125
0.00488125
0.004889662
0.004889662
0.004889662
0.004889662
0.004889662
0.004864295
0.004864295
0.004864295
0.004864295
0.004864295
0.004865257
0.004865257
0.004865257
0.004865257
0.004865257
0.004892741
0.004892741
0.004892741
0.004892741
0.004892741
0.004880992
0.004880992
0.004880992
0.004880992
0.004880992
0.004881408
0.004881408
0.004881408
0.004881408
0.004881408
0.004890755
0.004890755
0.004890755
0.004890755
0.004890755
0.004866368
0.004866368
0.004866368
0.004866368
0.004866368
0.004862467
0.004862467
0.004862467
0.004862467
0.004862467
0.004889742
0.004889742
0.004889742
0.004889742
0.004889742
0.004879188
0.004879188
0.004879188
0.004879188
0.004879188
0.004884378
0.004884378
0.004884378
0.004884378
0.004884378
0.004893591
0.004893591
0.004893591
0.004893591
0.004893591
0.004874668
0.004874668
0.004874668
0.004874668
0.004874668
0.004853484
0.004853484
0.004853484
0.004853484
0.004853484
0.004878988
0.004878988
0.004878988
0.004878988
0.004878988
0.004872938
0.004872938
0.004872938
0.004872938
0.004872938
0.004893502
0.004893502
0.004893502
0.004893502
0.004893502
0.004902421
0.004902421
0.004902421
0.004902421
0.004902421
0.004892206
0.004892206
0.004892206
0.004892206
0.004892206
0.004858154
0.004858154
0.004858154
0.004858154
0.004858154
0.004849227
0.004849227
0.004849227
0.004849227
0.004849227
0.004882228
0.004882228
0.004882228
0.004882228
0.004882228
0.004892357
0.004892357
0.004892357
0.004892357
0.004892357
0.004884975
0.004884975
0.004884975
0.004884975
0.004884975
0.004866995
0.004866995
0.004866995
0.004866995
0.004866995
0.004870693
0.004870693
0.004870693
0.004870693
0.004870693
0.004846184
0.004846184
0.004846184
0.004846184
0.004846184
0.004865823
0.004865823
0.004865823
0.004865823
0.004865823
0.004885215
0.004885215
0.004885215
0.004885215
0.004885215
0.004875826
0.004875826
0.004875826
0.004875826
0.004875826
0.004870723
0.004870723
0.004870723
0.004870723
0.004870723
0.004880965
0.004880965
0.004880965
0.004880965
0.004880965
0.00485437
0.00485437
0.00485437
0.00485437
0.00485437
0.004857695
0.004857695
0.004857695
0.004857695
0.004857695
0.004881462
0.004881462
0.004881462
0.004881462
0.004881462
0.004872544
0.004872544
0.004872544
0.004872544
0.004872544
0.004872396
0.004872396
0.004872396
0.004872396
0.004872396
0.004883991
0.004883991
0.004883991
0.004883991
0.004883991
0.004856788
0.004856788
0.004856788
0.004856788
0.004856788
0.00485587
0.00485587
0.00485587
0.00485587
0.00485587
0.004880693
0.004880693
0.004880693
0.004880693
0.004880693
0.004872637
0.004872637
0.004872637
0.004872637
0.004872637
0.00487267
0.00487267
0.00487267
0.00487267
0.00487267
0.004880948
0.004880948
0.004880948
0.004880948
0.004880948
0.004856272
0.004856272
0.004856272
0.004856272
0.004856272
0.004856548
0.004856548
0.004856548
0.004856548
0.004856548
0.004883823
0.004883823
0.004883823
0.004883823
0.004883823
0.004872448
0.004872448
0.004872448
0.004872448
0.004872448
0.004872594
0.004872594
0.004872594
0.004872594
0.004872594
0.004881464
0.004881464
0.004881464
0.004881464
0.004881464
0.004858769
0.004858769
0.004858769
0.004858769
0.004858769
0.004854991
0.004854991
0.004854991
0.004854991
0.004854991
0.00488153
0.00488153
0.00488153
0.00488153
0.00488153
0.004871387
0.004871387
0.004871387
0.004871387
0.004871387
0.004875127
0.004875127
0.004875127
0.004875127
0.004875127
0.004884821
0.004884821
0.004884821
0.004884821
0.004884821
0.004865613
0.004865613
0.004865613
0.004865613
0.004865613
0.004845566
0.004845566
0.004845566
0.004845566
0.004845566
0.004869628
0.004869628
0.004869628
0.004869628
0.004869628
0.004865514
0.004865514
0.004865514
0.004865514
0.004865514
0.004882426
0.004882426
0.004882426
0.004882426
0.004882426
0.004890233
0.004890233
0.004890233
0.004890233
0.004890233
0.004880661
0.004880661
0.004880661
0.004880661
0.004880661
0.004847597
0.004847597
0.004847597
0.004847597
0.004847597
0.004840003
0.004840003
0.004840003
0.004840003
0.004840003
0.004870982
0.004870982
0.004870982
0.004870982
0.004870982
0.004881511
0.004881511
0.004881511
0.004881511
0.004881511
0.004875078
0.004875078
0.004875078
0.004875078
0.004875078
0.004859551
0.004859551
0.004859551
0.004859551
0.004859551
0.004862503
0.004862503
0.004862503
0.004862503
0.004862503
0.00483952