/*--------------------------------*- C++ -*----------------------------------*\
| =========                 |                                                 |
| \\      /  F ield         | OpenFOAM: The Open Source CFD Toolbox           |
|  \\    /   O peration     | Version:  4.0                                   |
|   \\  /    A nd           | Web:      www.OpenFOAM.org                      |
|    \\/     M anipulation  |                                                 |
\*---------------------------------------------------------------------------*/
FoamFile
{
    version     2.0;
    format      ascii;
    class       volScalarField;
    location    "60/electrolyte";
    object      etaOhmic;
}
// * * * * * * * * * * * * * * * * * * * * * * * * * * * * * * * * * * * * * //

dimensions      [1 2 -3 0 0 -1 0];

internalField   nonuniform List<scalar> 
4840
(
0.00984309
0.00984309
0.00984309
0.00984309
0.00984309
0.01010999
0.01010999
0.01010999
0.01010999
0.01010999
0.0103729
0.0103729
0.0103729
0.0103729
0.0103729
0.01042383
0.01042383
0.01042383
0.01042383
0.01042383
0.01043017
0.01043017
0.01043017
0.01043017
0.01043017
0.01039615
0.01039615
0.01039615
0.01039615
0.01039615
0.01018441
0.01018441
0.01018441
0.01018441
0.01018441
0.01019308
0.01019308
0.01019308
0.01019308
0.01019308
0.01039687
0.01039687
0.01039687
0.01039687
0.01039687
0.01041882
0.01041882
0.01041882
0.01041882
0.01041882
0.01038875
0.01038875
0.01038875
0.01038875
0.01038875
0.01037149
0.01037149
0.01037149
0.01037149
0.01037149
0.01016292
0.01016292
0.01016292
0.01016292
0.01016292
0.01016141
0.01016141
0.01016141
0.01016141
0.01016141
0.01036573
0.01036573
0.01036573
0.01036573
0.01036573
0.01037623
0.01037623
0.01037623
0.01037623
0.01037623
0.01037728
0.01037728
0.01037728
0.01037728
0.01037728
0.01036047
0.01036047
0.01036047
0.01036047
0.01036047
0.01015336
0.01015336
0.01015336
0.01015336
0.01015336
0.01014943
0.01014943
0.01014943
0.01014943
0.01014943
0.0103537
0.0103537
0.0103537
0.0103537
0.0103537
0.01037524
0.01037524
0.01037524
0.01037524
0.01037524
0.01037667
0.01037667
0.01037667
0.01037667
0.01037667
0.01036022
0.01036022
0.01036022
0.01036022
0.01036022
0.01015398
0.01015398
0.01015398
0.01015398
0.01015398
0.01015694
0.01015694
0.01015694
0.01015694
0.01015694
0.0103626
0.0103626
0.0103626
0.0103626
0.0103626
0.01038448
0.01038448
0.01038448
0.01038448
0.01038448
0.01038632
0.01038632
0.01038632
0.01038632
0.01038632
0.01036975
0.01036975
0.01036975
0.01036975
0.01036975
0.01018755
0.01018755
0.01018755
0.01018755
0.01018755
0.01017886
0.01017886
0.01017886
0.01017886
0.01017886
0.01038622
0.01038622
0.01038622
0.01038622
0.01038622
0.0104087
0.0104087
0.0104087
0.0104087
0.0104087
0.01041114
0.01041114
0.01041114
0.01041114
0.01041114
0.01039428
0.01039428
0.01039428
0.01039428
0.01039428
0.01019024
0.01019024
0.01019024
0.01019024
0.01019024
0.01017293
0.01017293
0.01017293
0.01017293
0.01017293
0.01038558
0.01038558
0.01038558
0.01038558
0.01038558
0.01041053
0.01041053
0.01041053
0.01041053
0.01041053
0.01039606
0.01039606
0.01039606
0.01039606
0.01039606
0.01037491
0.01037491
0.01037491
0.01037491
0.01037491
0.01015089
0.01015089
0.01015089
0.01015089
0.01015089
0.00992354
0.00992354
0.00992354
0.00992354
0.00992354
0.009889974
0.009889974
0.009889974
0.009889974
0.009889974
0.01004835
0.01004835
0.01004835
0.01004835
0.01004835
0.01025745
0.01025745
0.01025745
0.01025745
0.01025745
0.01030385
0.01030385
0.01030385
0.01030385
0.01030385
0.01030685
0.01030685
0.01030685
0.01030685
0.01030685
0.01027877
0.01027877
0.01027877
0.01027877
0.01027877
0.01008579
0.01008579
0.01008579
0.01008579
0.01008579
0.01009202
0.01009202
0.01009202
0.01009202
0.01009202
0.01027281
0.01027281
0.01027281
0.01027281
0.01027281
0.01030765
0.01030765
0.01030765
0.01030765
0.01030765
0.01031086
0.01031086
0.01031086
0.01031086
0.01031086
0.01029179
0.01029179
0.01029179
0.01029179
0.01029179
0.01010151
0.01010151
0.01010151
0.01010151
0.01010151
0.01009835
0.01009835
0.01009835
0.01009835
0.01009835
0.01028062
0.01028062
0.01028062
0.01028062
0.01028062
0.01031607
0.01031607
0.01031607
0.01031607
0.01031607
0.01034366
0.01034366
0.01034366
0.01034366
0.01034366
0.01031593
0.01031593
0.01031593
0.01031593
0.01031593
0.01012685
0.01012685
0.01012685
0.01012685
0.01012685
0.01011971
0.01011971
0.01011971
0.01011971
0.01011971
0.01030334
0.01030334
0.01030334
0.01030334
0.01030334
0.01033905
0.01033905
0.01033905
0.01033905
0.01033905
0.01034334
0.01034334
0.01034334
0.01034334
0.01034334
0.01031613
0.01031613
0.01031613
0.01031613
0.01031613
0.01012803
0.01012803
0.01012803
0.01012803
0.01012803
0.01011818
0.01011818
0.01011818
0.01011818
0.01011818
0.01027894
0.01027894
0.01027894
0.01027894
0.01027894
0.01031518
0.01031518
0.01031518
0.01031518
0.01031518
0.01031996
0.01031996
0.01031996
0.01031996
0.01031996
0.01029309
0.01029309
0.01029309
0.01029309
0.01029309
0.01010634
0.01010634
0.01010634
0.01010634
0.01010634
0.0100833
0.0100833
0.0100833
0.0100833
0.0100833
0.01026894
0.01026894
0.01026894
0.01026894
0.01026894
0.01030584
0.01030584
0.01030584
0.01030584
0.01030584
0.01031143
0.01031143
0.01031143
0.01031143
0.01031143
0.01028543
0.01028543
0.01028543
0.01028543
0.01028543
0.01010097
0.01010097
0.01010097
0.01010097
0.01010097
0.0100785
0.0100785
0.0100785
0.0100785
0.0100785
0.0102679
0.0102679
0.0102679
0.0102679
0.0102679
0.01030754
0.01030754
0.01030754
0.01030754
0.01030754
0.01031949
0.01031949
0.01031949
0.01031949
0.01031949
0.01030178
0.01030178
0.01030178
0.01030178
0.01030178
0.0100987
0.0100987
0.0100987
0.0100987
0.0100987
0.009905735
0.009905735
0.009905735
0.009905735
0.009905735
0.009830477
0.009830477
0.009830477
0.009830477
0.009830477
0.009973119
0.009973119
0.009973119
0.009973119
0.009973119
0.01021119
0.01021119
0.01021119
0.01021119
0.01021119
0.01027388
0.01027388
0.01027388
0.01027388
0.01027388
0.01028135
0.01028135
0.01028135
0.01028135
0.01028135
0.01024388
0.01024388
0.01024388
0.01024388
0.01024388
0.01005836
0.01005836
0.01005836
0.01005836
0.01005836
0.01006221
0.01006221
0.01006221
0.01006221
0.01006221
0.0102354
0.0102354
0.0102354
0.0102354
0.0102354
0.01028284
0.01028284
0.01028284
0.01028284
0.01028284
0.01028811
0.01028811
0.01028811
0.01028811
0.01028811
0.01024949
0.01024949
0.01024949
0.01024949
0.01024949
0.01004154
0.01004154
0.01004154
0.01004154
0.01004154
0.01003609
0.01003609
0.01003609
0.01003609
0.01003609
0.01020988
0.01020988
0.01020988
0.01020988
0.01020988
0.01025805
0.01025805
0.01025805
0.01025805
0.01025805
0.0102641
0.0102641
0.0102641
0.0102641
0.0102641
0.01021714
0.01021714
0.01021714
0.01021714
0.01021714
0.0100345
0.0100345
0.0100345
0.0100345
0.0100345
0.01002451
0.01002451
0.01002451
0.01002451
0.01002451
0.01019923
0.01019923
0.01019923
0.01019923
0.01019923
0.01024796
0.01024796
0.01024796
0.01024796
0.01024796
0.0102548
0.0102548
0.0102548
0.0102548
0.0102548
0.01021769
0.01021769
0.01021769
0.01021769
0.01021769
0.01003594
0.01003594
0.01003594
0.01003594
0.01003594
0.01002297
0.01002297
0.01002297
0.01002297
0.01002297
0.01019865
0.01019865
0.01019865
0.01019865
0.01019865
0.01025721
0.01025721
0.01025721
0.01025721
0.01025721
0.01026469
0.01026469
0.01026469
0.01026469
0.01026469
0.01022815
0.01022815
0.01022815
0.01022815
0.01022815
0.01004736
0.01004736
0.01004736
0.01004736
0.01004736
0.01002986
0.01002986
0.01002986
0.01002986
0.01002986
0.01023066
0.01023066
0.01023066
0.01023066
0.01023066
0.01028085
0.01028085
0.01028085
0.01028085
0.01028085
0.01028947
0.01028947
0.01028947
0.01028947
0.01028947
0.01025409
0.01025409
0.01025409
0.01025409
0.01025409
0.01007481
0.01007481
0.01007481
0.01007481
0.01007481
0.01004878
0.01004878
0.01004878
0.01004878
0.01004878
0.01022866
0.01022866
0.01022866
0.01022866
0.01022866
0.01028167
0.01028167
0.01028167
0.01028167
0.01028167
0.0102958
0.0102958
0.0102958
0.0102958
0.0102958
0.01025731
0.01025731
0.01025731
0.01025731
0.01025731
0.01002193
0.01002193
0.01002193
0.01002193
0.01002193
0.009845559
0.009845559
0.009845559
0.009845559
0.009845559
0.00975931
0.00975931
0.00975931
0.00975931
0.00975931
0.009877424
0.009877424
0.009877424
0.009877424
0.009877424
0.01010655
0.01010655
0.01010655
0.01010655
0.01010655
0.01018165
0.01018165
0.01018165
0.01018165
0.01018165
0.01019492
0.01019492
0.01019492
0.01019492
0.01019492
0.01014535
0.01014535
0.01014535
0.01014535
0.01014535
0.00996885
0.00996885
0.00996885
0.00996885
0.00996885
0.009965654
0.009965654
0.009965654
0.009965654
0.009965654
0.0101375
0.0101375
0.0101375
0.0101375
0.0101375
0.01019818
0.01019818
0.01019818
0.01019818
0.01019818
0.01020487
0.01020487
0.01020487
0.01020487
0.01020487
0.01015334
0.01015334
0.01015334
0.01015334
0.01015334
0.009974731
0.009974731
0.009974731
0.009974731
0.009974731
0.00997398
0.00997398
0.00997398
0.00997398
0.00997398
0.01014434
0.01014434
0.01014434
0.01014434
0.01014434
0.01020642
0.01020642
0.01020642
0.01020642
0.01020642
0.01021432
0.01021432
0.01021432
0.01021432
0.01021432
0.01016404
0.01016404
0.01016404
0.01016404
0.01016404
0.01000867
0.01000867
0.01000867
0.01000867
0.01000867
0.009995734
0.009995734
0.009995734
0.009995734
0.009995734
0.01016609
0.01016609
0.01016609
0.01016609
0.01016609
0.01022938
0.01022938
0.01022938
0.01022938
0.01022938
0.01023831
0.01023831
0.01023831
0.01023831
0.01023831
0.01018914
0.01018914
0.01018914
0.01018914
0.01018914
0.01000965
0.01000965
0.01000965
0.01000965
0.01000965
0.009994782
0.009994782
0.009994782
0.009994782
0.009994782
0.01016479
0.01016479
0.01016479
0.01016479
0.01016479
0.01022911
0.01022911
0.01022911
0.01022911
0.01022911
0.01021524
0.01021524
0.01021524
0.01021524
0.01021524
0.01016719
0.01016719
0.01016719
0.01016719
0.01016719
0.009987762
0.009987762
0.009987762
0.009987762
0.009987762
0.009970009
0.009970009
0.009970009
0.009970009
0.009970009
0.01013959
0.01013959
0.01013959
0.01013959
0.01013959
0.01019582
0.01019582
0.01019582
0.01019582
0.01019582
0.01020715
0.01020715
0.01020715
0.01020715
0.01020715
0.01016103
0.01016103
0.01016103
0.01016103
0.01016103
0.009981148
0.009981148
0.009981148
0.009981148
0.009981148
0.009957855
0.009957855
0.009957855
0.009957855
0.009957855
0.01012755
0.01012755
0.01012755
0.01012755
0.01012755
0.01019608
0.01019608
0.01019608
0.01019608
0.01019608
0.01021036
0.01021036
0.01021036
0.01021036
0.01021036
0.01015464
0.01015464
0.01015464
0.01015464
0.01015464
0.00992537
0.00992537
0.00992537
0.00992537
0.00992537
0.009775532
0.009775532
0.009775532
0.009775532
0.009775532
0.009693573
0.009693573
0.009693573
0.009693573
0.009693573
0.009797669
0.009797669
0.009797669
0.009797669
0.009797669
0.01003942
0.01003942
0.01003942
0.01003942
0.01003942
0.01014192
0.01014192
0.01014192
0.01014192
0.01014192
0.01018411
0.01018411
0.01018411
0.01018411
0.01018411
0.01012768
0.01012768
0.01012768
0.01012768
0.01012768
0.009951376
0.009951376
0.009951376
0.009951376
0.009951376
0.009943903
0.009943903
0.009943903
0.009943903
0.009943903
0.01011995
0.01011995
0.01011995
0.01011995
0.01011995
0.01019034
0.01019034
0.01019034
0.01019034
0.01019034
0.01019787
0.01019787
0.01019787
0.01019787
0.01019787
0.01013793
0.01013793
0.01013793
0.01013793
0.01013793
0.009957409
0.009957409
0.009957409
0.009957409
0.009957409
0.009944627
0.009944627
0.009944627
0.009944627
0.009944627
0.01009456
0.01009456
0.01009456
0.01009456
0.01009456
0.01016561
0.01016561
0.01016561
0.01016561
0.01016561
0.01017479
0.01017479
0.01017479
0.01017479
0.01017479
0.01011714
0.01011714
0.01011714
0.01011714
0.01011714
0.009935035
0.009935035
0.009935035
0.009935035
0.009935035
0.009911042
0.009911042
0.009911042
0.009911042
0.009911042
0.01008219
0.01008219
0.01008219
0.01008219
0.01008219
0.01015499
0.01015499
0.01015499
0.01015499
0.01015499
0.01016531
0.01016531
0.01016531
0.01016531
0.01016531
0.01010812
0.01010812
0.01010812
0.01010812
0.01010812
0.009926849
0.009926849
0.009926849
0.009926849
0.009926849
0.009910796
0.009910796
0.009910796
0.009910796
0.009910796
0.01008219
0.01008219
0.01008219
0.01008219
0.01008219
0.01015538
0.01015538
0.01015538
0.01015538
0.01015538
0.0101669
0.0101669
0.0101669
0.0101669
0.0101669
0.01012259
0.01012259
0.01012259
0.01012259
0.01012259
0.009938788
0.009938788
0.009938788
0.009938788
0.009938788
0.009920517
0.009920517
0.009920517
0.009920517
0.009920517
0.01009019
0.01009019
0.01009019
0.01009019
0.01009019
0.01016568
0.01016568
0.01016568
0.01016568
0.01016568
0.01020953
0.01020953
0.01020953
0.01020953
0.01020953
0.01015599
0.01015599
0.01015599
0.01015599
0.01015599
0.009970346
0.009970346
0.009970346
0.009970346
0.009970346
0.00994824
0.00994824
0.00994824
0.00994824
0.00994824
0.01011701
0.01011701
0.01011701
0.01011701
0.01011701
0.01021533
0.01021533
0.01021533
0.01021533
0.01021533
0.01022905
0.01022905
0.01022905
0.01022905
0.01022905
0.01015821
0.01015821
0.01015821
0.01015821
0.01015821
0.00991379
0.00991379
0.00991379
0.00991379
0.00991379
0.009763854
0.009763854
0.009763854
0.009763854
0.009763854
0.009691774
0.009691774
0.009691774
0.009691774
0.009691774
0.009788118
0.009788118
0.009788118
0.009788118
0.009788118
0.01003933
0.01003933
0.01003933
0.01003933
0.01003933
0.01015882
0.01015882
0.01015882
0.01015882
0.01015882
0.01018235
0.01018235
0.01018235
0.01018235
0.01018235
0.010103
0.010103
0.010103
0.010103
0.010103
0.009925448
0.009925448
0.009925448
0.009925448
0.009925448
0.009915804
0.009915804
0.009915804
0.009915804
0.009915804
0.01009822
0.01009822
0.01009822
0.01009822
0.01009822
0.01017422
0.01017422
0.01017422
0.01017422
0.01017422
0.01015597
0.01015597
0.01015597
0.01015597
0.01015597
0.01009053
0.01009053
0.01009053
0.01009053
0.01009053
0.009905557
0.009905557
0.009905557
0.009905557
0.009905557
0.009890943
0.009890943
0.009890943
0.009890943
0.009890943
0.01006847
0.01006847
0.01006847
0.01006847
0.01006847
0.0101372
0.0101372
0.0101372
0.0101372
0.0101372
0.01014748
0.01014748
0.01014748
0.01014748
0.01014748
0.01008419
0.01008419
0.01008419
0.01008419
0.01008419
0.009897153
0.009897153
0.009897153
0.009897153
0.009897153
0.009880763
0.009880763
0.009880763
0.009880763
0.009880763
0.010055
0.010055
0.010055
0.010055
0.010055
0.01013512
0.01013512
0.01013512
0.01013512
0.01013512
0.01014643
0.01014643
0.01014643
0.01014643
0.01014643
0.01008309
0.01008309
0.01008309
0.01008309
0.01008309
0.009896963
0.009896963
0.009896963
0.009896963
0.009896963
0.009887569
0.009887569
0.009887569
0.009887569
0.009887569
0.01006316
0.01006316
0.01006316
0.01006316
0.01006316
0.01014323
0.01014323
0.01014323
0.01014323
0.01014323
0.01015563
0.01015563
0.01015563
0.01015563
0.01015563
0.0100941
0.0100941
0.0100941
0.0100941
0.0100941
0.009923859
0.009923859
0.009923859
0.009923859
0.009923859
0.00990509
0.00990509
0.00990509
0.00990509
0.00990509
0.01007878
0.01007878
0.01007878
0.01007878
0.01007878
0.01016122
0.01016122
0.01016122
0.01016122
0.01016122
0.01017606
0.01017606
0.01017606
0.01017606
0.01017606
0.01011724
0.01011724
0.01011724
0.01011724
0.01011724
0.009924593
0.009924593
0.009924593
0.009924593
0.009924593
0.009902681
0.009902681
0.009902681
0.009902681
0.009902681
0.01007218
0.01007218
0.01007218
0.01007218
0.01007218
0.01015752
0.01015752
0.01015752
0.01015752
0.01015752
0.01015039
0.01015039
0.01015039
0.01015039
0.01015039
0.01006568
0.01006568
0.01006568
0.01006568
0.01006568
0.009812772
0.009812772
0.009812772
0.009812772
0.009812772
0.009668404
0.009668404
0.009668404
0.009668404
0.009668404
0.009593146
0.009593146
0.009593146
0.009593146
0.009593146
0.009678512
0.009678512
0.009678512
0.009678512
0.009678512
0.009938705
0.009938705
0.009938705
0.009938705
0.009938705
0.01006898
0.01006898
0.01006898
0.01006898
0.01006898
0.01009636
0.01009636
0.01009636
0.01009636
0.01009636
0.01003235
0.01003235
0.01003235
0.01003235
0.01003235
0.009851718
0.009851718
0.009851718
0.009851718
0.009851718
0.009842207
0.009842207
0.009842207
0.009842207
0.009842207
0.0100289
0.0100289
0.0100289
0.0100289
0.0100289
0.01010972
0.01010972
0.01010972
0.01010972
0.01010972
0.01011844
0.01011844
0.01011844
0.01011844
0.01011844
0.01005725
0.01005725
0.01005725
0.01005725
0.01005725
0.009865698
0.009865698
0.009865698
0.009865698
0.009865698
0.009849714
0.009849714
0.009849714
0.009849714
0.009849714
0.01003205
0.01003205
0.01003205
0.01003205
0.01003205
0.01011572
0.01011572
0.01011572
0.01011572
0.01011572
0.01014585
0.01014585
0.01014585
0.01014585
0.01014585
0.01007836
0.01007836
0.01007836
0.01007836
0.01007836
0.009885012
0.009885012
0.009885012
0.009885012
0.009885012
0.009867589
0.009867589
0.009867589
0.009867589
0.009867589
0.01004824
0.01004824
0.01004824
0.01004824
0.01004824
0.01013304
0.01013304
0.01013304
0.01013304
0.01013304
0.01014507
0.01014507
0.01014507
0.01014507
0.01014507
0.01007783
0.01007783
0.01007783
0.01007783
0.01007783
0.009884951
0.009884951
0.009884951
0.009884951
0.009884951
0.009867361
0.009867361
0.009867361
0.009867361
0.009867361
0.01002952
0.01002952
0.01002952
0.01002952
0.01002952
0.01011453
0.01011453
0.01011453
0.01011453
0.01011453
0.01012741
0.01012741
0.01012741
0.01012741
0.01012741
0.01006136
0.01006136
0.01006136
0.01006136
0.01006136
0.009866839
0.009866839
0.009866839
0.009866839
0.009866839
0.009840245
0.009840245
0.009840245
0.009840245
0.009840245
0.01001954
0.01001954
0.01001954
0.01001954
0.01001954
0.01010614
0.01010614
0.01010614
0.01010614
0.01010614
0.01012184
0.01012184
0.01012184
0.01012184
0.01012184
0.01005949
0.01005949
0.01005949
0.01005949
0.01005949
0.009861861
0.009861861
0.009861861
0.009861861
0.009861861
0.009838562
0.009838562
0.009838562
0.009838562
0.009838562
0.01001109
0.01001109
0.01001109
0.01001109
0.01001109
0.01010087
0.01010087
0.01010087
0.01010087
0.01010087
0.01011157
0.01011157
0.01011157
0.01011157
0.01011157
0.01002519
0.01002519
0.01002519
0.01002519
0.01002519
0.009761653
0.009761653
0.009761653
0.009761653
0.009761653
0.009617906
0.009617906
0.009617906
0.009617906
0.009617906
0.009546184
0.009546184
0.009546184
0.009546184
0.009546184
0.009638927
0.009638927
0.009638927
0.009638927
0.009638927
0.009927788
0.009927788
0.009927788
0.009927788
0.009927788
0.01006684
0.01006684
0.01006684
0.01006684
0.01006684
0.01009798
0.01009798
0.01009798
0.01009798
0.01009798
0.01003307
0.01003307
0.01003307
0.01003307
0.01003307
0.009846128
0.009846128
0.009846128
0.009846128
0.009846128
0.009835196
0.009835196
0.009835196
0.009835196
0.009835196
0.01002693
0.01002693
0.01002693
0.01002693
0.01002693
0.01011273
0.01011273
0.01011273
0.01011273
0.01011273
0.01012239
0.01012239
0.01012239
0.01012239
0.01012239
0.01005025
0.01005025
0.01005025
0.01005025
0.01005025
0.009834493
0.009834493
0.009834493
0.009834493
0.009834493
0.009817565
0.009817565
0.009817565
0.009817565
0.009817565
0.01000462
0.01000462
0.01000462
0.01000462
0.01000462
0.0100923
0.0100923
0.0100923
0.0100923
0.0100923
0.01010404
0.01010404
0.01010404
0.01010404
0.01010404
0.01002548
0.01002548
0.01002548
0.01002548
0.01002548
0.009827362
0.009827362
0.009827362
0.009827362
0.009827362
0.009809422
0.009809422
0.009809422
0.009809422
0.009809422
0.009995204
0.009995204
0.009995204
0.009995204
0.009995204
0.01008346
0.01008346
0.01008346
0.01008346
0.01008346
0.01009593
0.01009593
0.01009593
0.01009593
0.01009593
0.01002587
0.01002587
0.01002587
0.01002587
0.01002587
0.009827415
0.009827415
0.009827415
0.009827415
0.009827415
0.009809295
0.009809295
0.009809295
0.009809295
0.009809295
0.009994798
0.009994798
0.009994798
0.009994798
0.009994798
0.01009153
0.01009153
0.01009153
0.01009153
0.01009153
0.01010469
0.01010469
0.01010469
0.01010469
0.01010469
0.01003515
0.01003515
0.01003515
0.01003515
0.01003515
0.009835402
0.009835402
0.009835402
0.009835402
0.009835402
0.00981631
0.00981631
0.00981631
0.00981631
0.00981631
0.01001947
0.01001947
0.01001947
0.01001947
0.01001947
0.01010997
0.01010997
0.01010997
0.01010997
0.01010997
0.01012578
0.01012578
0.01012578
0.01012578
0.01012578
0.01005912
0.01005912
0.01005912
0.01005912
0.01005912
0.009855981
0.009855981
0.009855981
0.009855981
0.009855981
0.009833098
0.009833098
0.009833098
0.009833098
0.009833098
0.01001194
0.01001194
0.01001194
0.01001194
0.01001194
0.01010402
0.01010402
0.01010402
0.01010402
0.01010402
0.01011293
0.01011293
0.01011293
0.01011293
0.01011293
0.01001164
0.01001164
0.01001164
0.01001164
0.01001164
0.009719065
0.009719065
0.009719065
0.009719065
0.009719065
0.009573672
0.009573672
0.009573672
0.009573672
0.009573672
0.009505462
0.009505462
0.009505462
0.009505462
0.009505462
0.009599346
0.009599346
0.009599346
0.009599346
0.009599346
0.009878208
0.009878208
0.009878208
0.009878208
0.009878208
0.01001604
0.01001604
0.01001604
0.01001604
0.01001604
0.01005032
0.01005032
0.01005032
0.01005032
0.01005032
0.009985114
0.009985114
0.009985114
0.009985114
0.009985114
0.009793257
0.009793257
0.009793257
0.009793257
0.009793257
0.00978124
0.00978124
0.00978124
0.00978124
0.00978124
0.009975927
0.009975927
0.009975927
0.009975927
0.009975927
0.01006565
0.01006565
0.01006565
0.01006565
0.01006565
0.01007644
0.01007644
0.01007644
0.01007644
0.01007644
0.01000287
0.01000287
0.01000287
0.01000287
0.01000287
0.009800966
0.009800966
0.009800966
0.009800966
0.009800966
0.009790713
0.009790713
0.009790713
0.009790713
0.009790713
0.009980683
0.009980683
0.009980683
0.009980683
0.009980683
0.01007223
0.01007223
0.01007223
0.01007223
0.01007223
0.01008455
0.01008455
0.01008455
0.01008455
0.01008455
0.01001027
0.01001027
0.01001027
0.01001027
0.01001027
0.009827441
0.009827441
0.009827441
0.009827441
0.009827441
0.009809696
0.009809696
0.009809696
0.009809696
0.009809696
0.01000017
0.01000017
0.01000017
0.01000017
0.01000017
0.01009116
0.01009116
0.01009116
0.01009116
0.01009116
0.01010403
0.01010403
0.01010403
0.01010403
0.01010403
0.01003175
0.01003175
0.01003175
0.01003175
0.01003175
0.009828151
0.009828151
0.009828151
0.009828151
0.009828151
0.009808909
0.009808909
0.009808909
0.009808909
0.009808909
0.009997673
0.009997673
0.009997673
0.009997673
0.009997673
0.0100907
0.0100907
0.0100907
0.0100907
0.0100907
0.01008511
0.01008511
0.01008511
0.01008511
0.01008511
0.01001211
0.01001211
0.01001211
0.01001211
0.01001211
0.009809093
0.009809093
0.009809093
0.009809093
0.009809093
0.009790139
0.009790139
0.009790139
0.009790139
0.009790139
0.009979339
0.009979339
0.009979339
0.009979339
0.009979339
0.01006405
0.01006405
0.01006405
0.01006405
0.01006405
0.01007945
0.01007945
0.01007945
0.01007945
0.01007945
0.01000928
0.01000928
0.01000928
0.01000928
0.01000928
0.009802864
0.009802864
0.009802864
0.009802864
0.009802864
0.009780543
0.009780543
0.009780543
0.009780543
0.009780543
0.009964391
0.009964391
0.009964391
0.009964391
0.009964391
0.01005781
0.01005781
0.01005781
0.01005781
0.01005781
0.01006492
0.01006492
0.01006492
0.01006492
0.01006492
0.009958357
0.009958357
0.009958357
0.009958357
0.009958357
0.009675831
0.009675831
0.009675831
0.009675831
0.009675831
0.009535363
0.009535363
0.009535363
0.009535363
0.009535363
0.009470344
0.009470344
0.009470344
0.009470344
0.009470344
0.009565769
0.009565769
0.009565769
0.009565769
0.009565769
0.009851912
0.009851912
0.009851912
0.009851912
0.009851912
0.01000305
0.01000305
0.01000305
0.01000305
0.01000305
0.01005913
0.01005913
0.01005913
0.01005913
0.01005913
0.009993778
0.009993778
0.009993778
0.009993778
0.009993778
0.009797098
0.009797098
0.009797098
0.009797098
0.009797098
0.009784086
0.009784086
0.009784086
0.009784086
0.009784086
0.009981564
0.009981564
0.009981564
0.009981564
0.009981564
0.01007541
0.01007541
0.01007541
0.01007541
0.01007541
0.01008754
0.01008754
0.01008754
0.01008754
0.01008754
0.01001283
0.01001283
0.01001283
0.01001283
0.01001283
0.009807867
0.009807867
0.009807867
0.009807867
0.009807867
0.009787254
0.009787254
0.009787254
0.009787254
0.009787254
0.009958725
0.009958725
0.009958725
0.009958725
0.009958725
0.01005472
0.01005472
0.01005472
0.01005472
0.01005472
0.01006797
0.01006797
0.01006797
0.01006797
0.01006797
0.009991097
0.009991097
0.009991097
0.009991097
0.009991097
0.009787507
0.009787507
0.009787507
0.009787507
0.009787507
0.009762575
0.009762575
0.009762575
0.009762575
0.009762575
0.009955179
0.009955179
0.009955179
0.009955179
0.009955179
0.01004837
0.01004837
0.01004837
0.01004837
0.01004837
0.01006147
0.01006147
0.01006147
0.01006147
0.01006147
0.00998712
0.00998712
0.00998712
0.00998712
0.00998712
0.009781487
0.009781487
0.009781487
0.009781487
0.009781487
0.009761579
0.009761579
0.009761579
0.009761579
0.009761579
0.009951828
0.009951828
0.009951828
0.009951828
0.009951828
0.0100476
0.0100476
0.0100476
0.0100476
0.0100476
0.01006059
0.01006059
0.01006059
0.01006059
0.01006059
0.009992962
0.009992962
0.009992962
0.009992962
0.009992962
0.009789696
0.009789696
0.009789696
0.009789696
0.009789696
0.009772876
0.009772876
0.009772876
0.009772876
0.009772876
0.009964417
0.009964417
0.009964417
0.009964417
0.009964417
0.01005821
0.01005821
0.01005821
0.01005821
0.01005821
0.01009902
0.01009902
0.01009902
0.01009902
0.01009902
0.0100255
0.0100255
0.0100255
0.0100255
0.0100255
0.009815824
0.009815824
0.009815824
0.009815824
0.009815824
0.009793956
0.009793956
0.009793956
0.009793956
0.009793956
0.009982822
0.009982822
0.009982822
0.009982822
0.009982822
0.01009514
0.01009514
0.01009514
0.01009514
0.01009514
0.01010066
0.01010066
0.01010066
0.01010066
0.01010066
0.009988869
0.009988869
0.009988869
0.009988869
0.009988869
0.009697491
0.009697491
0.009697491
0.009697491
0.009697491
0.009546018
0.009546018
0.009546018
0.009546018
0.009546018
0.009492317
0.009492317
0.009492317
0.009492317
0.009492317
0.009589709
0.009589709
0.009589709
0.009589709
0.009589709
0.00988279
0.00988279
0.00988279
0.00988279
0.00988279
0.01003963
0.01003963
0.01003963
0.01003963
0.01003963
0.01007934
0.01007934
0.01007934
0.01007934
0.01007934
0.009997699
0.009997699
0.009997699
0.009997699
0.009997699
0.009797751
0.009797751
0.009797751
0.009797751
0.009797751
0.009783785
0.009783785
0.009783785
0.009783785
0.009783785
0.009982686
0.009982686
0.009982686
0.009982686
0.009982686
0.01007959
0.01007959
0.01007959
0.01007959
0.01007959
0.01006746
0.01006746
0.01006746
0.01006746
0.01006746
0.009992069
0.009992069
0.009992069
0.009992069
0.009992069
0.009786165
0.009786165
0.009786165
0.009786165
0.009786165
0.009762682
0.009762682
0.009762682
0.009762682
0.009762682
0.009951388
0.009951388
0.009951388
0.009951388
0.009951388
0.01004243
0.01004243
0.01004243
0.01004243
0.01004243
0.01005696
0.01005696
0.01005696
0.01005696
0.01005696
0.009978978
0.009978978
0.009978978
0.009978978
0.009978978
0.009772739
0.009772739
0.009772739
0.009772739
0.009772739
0.009754583
0.009754583
0.009754583
0.009754583
0.009754583
0.009947913
0.009947913
0.009947913
0.009947913
0.009947913
0.01004406
0.01004406
0.01004406
0.01004406
0.01004406
0.01005737
0.01005737
0.01005737
0.01005737
0.01005737
0.00998033
0.00998033
0.00998033
0.00998033
0.00998033
0.009772936
0.009772936
0.009772936
0.009772936
0.009772936
0.009759599
0.009759599
0.009759599
0.009759599
0.009759599
0.00995249
0.00995249
0.00995249
0.00995249
0.00995249
0.01004972
0.01004972
0.01004972
0.01004972
0.01004972
0.01006185
0.01006185
0.01006185
0.01006185
0.01006185
0.009980913
0.009980913
0.009980913
0.009980913
0.009980913
0.009794991
0.009794991
0.009794991
0.009794991
0.009794991
0.009780605
0.009780605
0.009780605
0.009780605
0.009780605
0.009973438
0.009973438
0.009973438
0.009973438
0.009973438
0.01006844
0.01006844
0.01006844
0.01006844
0.01006844
0.0100822
0.0100822
0.0100822
0.0100822
0.0100822
0.01000496
0.01000496
0.01000496
0.01000496
0.01000496
0.009794189
0.009794189
0.009794189
0.009794189
0.009794189
0.009773082
0.009773082
0.009773082
0.009773082
0.009773082
0.009965048
0.009965048
0.009965048
0.009965048
0.009965048
0.01006005
0.01006005
0.01006005
0.01006005
0.01006005
0.01004712
0.01004712
0.01004712
0.01004712
0.01004712
0.009931281
0.009931281
0.009931281
0.009931281
0.009931281
0.009634961
0.009634961
0.009634961
0.009634961
0.009634961
0.009481487
0.009481487
0.009481487
0.009481487
0.009481487
0.009421566
0.009421566
0.009421566
0.009421566
0.009421566
0.00951327
0.00951327
0.00951327
0.00951327
0.00951327
0.009809101
0.009809101
0.009809101
0.009809101
0.009809101
0.009970001
0.009970001
0.009970001
0.009970001
0.009970001
0.01001197
0.01001197
0.01001197
0.01001197
0.01001197
0.009946635
0.009946635
0.009946635
0.009946635
0.009946635
0.009745581
0.009745581
0.009745581
0.009745581
0.009745581
0.00973095
0.00973095
0.00973095
0.00973095
0.00973095
0.009929712
0.009929712
0.009929712
0.009929712
0.009929712
0.01002921
0.01002921
0.01002921
0.01002921
0.01002921
0.01004374
0.01004374
0.01004374
0.01004374
0.01004374
0.009974551
0.009974551
0.009974551
0.009974551
0.009974551
0.00976867
0.00976867
0.00976867
0.00976867
0.00976867
0.009742334
0.009742334
0.009742334
0.009742334
0.009742334
0.009929143
0.009929143
0.009929143
0.009929143
0.009929143
0.01003197
0.01003197
0.01003197
0.01003197
0.01003197
0.01006465
0.01006465
0.01006465
0.01006465
0.01006465
0.009986135
0.009986135
0.009986135
0.009986135
0.009986135
0.009777787
0.009777787
0.009777787
0.009777787
0.009777787
0.009757992
0.009757992
0.009757992
0.009757992
0.009757992
0.009951326
0.009951326
0.009951326
0.009951326
0.009951326
0.01005069
0.01005069
0.01005069
0.01005069
0.01005069
0.01006419
0.01006419
0.01006419
0.01006419
0.01006419
0.00998415
0.00998415
0.00998415
0.00998415
0.00998415
0.009777055
0.009777055
0.009777055
0.009777055
0.009777055
0.00975847
0.00975847
0.00975847
0.00975847
0.00975847
0.00993647
0.00993647
0.00993647
0.00993647
0.00993647
0.01003428
0.01003428
0.01003428
0.01003428
0.01003428
0.01004518
0.01004518
0.01004518
0.01004518
0.01004518
0.009961499
0.009961499
0.009961499
0.009961499
0.009961499
0.00976095
0.00976095
0.00976095
0.00976095
0.00976095
0.009742613
0.009742613
0.009742613
0.009742613
0.009742613
0.00993503
0.00993503