/*--------------------------------*- C++ -*----------------------------------*\
| =========                 |                                                 |
| \\      /  F ield         | OpenFOAM: The Open Source CFD Toolbox           |
|  \\    /   O peration     | Version:  4.0                                   |
|   \\  /    A nd           | Web:      www.OpenFOAM.org                      |
|    \\/     M anipulation  |                                                 |
\*---------------------------------------------------------------------------*/
FoamFile
{
    version     2.0;
    format      ascii;
    class       volScalarField;
    location    "60/electrolyte";
    object      I;
}
// * * * * * * * * * * * * * * * * * * * * * * * * * * * * * * * * * * * * * //

dimensions      [0 -2 0 0 0 1 0];

internalField   nonuniform List<scalar> 
4840
(
407.3164
407.3164
407.3164
407.3164
407.3164
414.9909
414.9909
414.9909
414.9909
414.9909
423.2372
423.2372
423.2372
423.2372
423.2372
424.0873
424.0873
424.0873
424.0873
424.0873
423.7543
423.7543
423.7543
423.7543
423.7543
422.0265
422.0265
422.0265
422.0265
422.0265
413.7722
413.7722
413.7722
413.7722
413.7722
414.2632
414.2632
414.2632
414.2632
414.2632
422.1299
422.1299
422.1299
422.1299
422.1299
422.8895
422.8895
422.8895
422.8895
422.8895
421.6068
421.6068
421.6068
421.6068
421.6068
420.8112
420.8112
420.8112
420.8112
420.8112
412.7941
412.7941
412.7941
412.7941
412.7941
412.9499
412.9499
412.9499
412.9499
412.9499
420.8689
420.8689
420.8689
420.8689
420.8689
421.1721
421.1721
421.1721
421.1721
421.1721
421.1548
421.1548
421.1548
421.1548
421.1548
420.3773
420.3773
420.3773
420.3773
420.3773
412.4167
412.4167
412.4167
412.4167
412.4167
412.4787
412.4787
412.4787
412.4787
412.4787
420.3944
420.3944
420.3944
420.3944
420.3944
421.1429
421.1429
421.1429
421.1429
421.1429
421.138
421.138
421.138
421.138
421.138
420.3724
420.3724
420.3724
420.3724
420.3724
412.4445
412.4445
412.4445
412.4445
412.4445
412.7864
412.7864
412.7864
412.7864
412.7864
420.7571
420.7571
420.7571
420.7571
420.7571
421.5174
421.5174
421.5174
421.5174
421.5174
421.5258
421.5258
421.5258
421.5258
421.5258
420.7512
420.7512
420.7512
420.7512
420.7512
413.797
413.797
413.797
413.797
413.797
413.6705
413.6705
413.6705
413.6705
413.6705
421.7074
421.7074
421.7074
421.7074
421.7074
422.4891
422.4891
422.4891
422.4891
422.4891
422.5167
422.5167
422.5167
422.5167
422.5167
421.7201
421.7201
421.7201
421.7201
421.7201
413.862
413.862
413.862
413.862
413.862
413.4012
413.4012
413.4012
413.4012
413.4012
421.6462
421.6462
421.6462
421.6462
421.6462
422.5113
422.5113
422.5113
422.5113
422.5113
421.8275
421.8275
421.8275
421.8275
421.8275
420.8799
420.8799
420.8799
420.8799
420.8799
412.5514
412.5514
412.5514
412.5514
412.5514
404.7937
404.7937
404.7937
404.7937
404.7937
404.4658
404.4658
404.4658
404.4658
404.4658
410.3298
410.3298
410.3298
410.3298
410.3298
417.3758
417.3758
417.3758
417.3758
417.3758
418.3687
418.3687
418.3687
418.3687
418.3687
418.0603
418.0603
418.0603
418.0603
418.0603
416.8161
416.8161
416.8161
416.8161
416.8161
409.6996
409.6996
409.6996
409.6996
409.6996
410.2758
410.2758
410.2758
410.2758
410.2758
417.0471
417.0471
417.0471
417.0471
417.0471
418.0909
418.0909
418.0909
418.0909
418.0909
418.0416
418.0416
418.0416
418.0416
418.0416
417.275
417.275
417.275
417.275
417.275
410.3099
410.3099
410.3099
410.3099
410.3099
410.5507
410.5507
410.5507
410.5507
410.5507
417.3956
417.3956
417.3956
417.3956
417.3956
418.4634
418.4634
418.4634
418.4634
418.4634
419.4001
419.4001
419.4001
419.4001
419.4001
418.2785
418.2785
418.2785
418.2785
418.2785
411.3596
411.3596
411.3596
411.3596
411.3596
411.4439
411.4439
411.4439
411.4439
411.4439
418.3405
418.3405
418.3405
418.3405
418.3405
419.4134
419.4134
419.4134
419.4134
419.4134
419.3989
419.3989
419.3989
419.3989
419.3989
418.2932
418.2932
418.2932
418.2932
418.2932
411.4106
411.4106
411.4106
411.4106
411.4106
411.3841
411.3841
411.3841
411.3841
411.3841
417.3484
417.3484
417.3484
417.3484
417.3484
418.4401
418.4401
418.4401
418.4401
418.4401
418.442
418.442
418.442
418.442
418.442
417.3454
417.3454
417.3454
417.3454
417.3454
410.5095
410.5095
410.5095
410.5095
410.5095
409.9479
409.9479
409.9479
409.9479
409.9479
416.9244
416.9244
416.9244
416.9244
416.9244
418.0412
418.0412
418.0412
418.0412
418.0412
418.0706
418.0706
418.0706
418.0706
418.0706
416.9991
416.9991
416.9991
416.9991
416.9991
410.2397
410.2397
410.2397
410.2397
410.2397
409.7199
409.7199
409.7199
409.7199
409.7199
416.844
416.844
416.844
416.844
416.844
418.0549
418.0549
418.0549
418.0549
418.0549
418.324
418.324
418.324
418.324
418.324
417.6463
417.6463
417.6463
417.6463
417.6463
410.5833
410.5833
410.5833
410.5833
410.5833
404.4313
404.4313
404.4313
404.4313
404.4313
402.6789
402.6789
402.6789
402.6789
402.6789
408.04
408.04
408.04
408.04
408.04
415.9535
415.9535
415.9535
415.9535
415.9535
417.241
417.241
417.241
417.241
417.241
416.9159
416.9159
416.9159
416.9159
416.9159
415.3377
415.3377
415.3377
415.3377
415.3377
408.7724
408.7724
408.7724
408.7724
408.7724
409.3732
409.3732
409.3732
409.3732
409.3732
415.6715
415.6715
415.6715
415.6715
415.6715
416.9956
416.9956
416.9956
416.9956
416.9956
416.9161
416.9161
416.9161
416.9161
416.9161
415.4472
415.4472
415.4472
415.4472
415.4472
408.0319
408.0319
408.0319
408.0319
408.0319
408.3125
408.3125
408.3125
408.3125
408.3125
414.6587
414.6587
414.6587
414.6587
414.6587
416.018
416.018
416.018
416.018
416.018
415.9675
415.9675
415.9675
415.9675
415.9675
414.155
414.155
414.155
414.155
414.155
407.7618
407.7618
407.7618
407.7618
407.7618
407.8613
407.8613
407.8613
407.8613
407.8613
414.2448
414.2448
414.2448
414.2448
414.2448
415.623
415.623
415.623
415.623
415.623
415.6002
415.6002
415.6002
415.6002
415.6002
414.1831
414.1831
414.1831
414.1831
414.1831
407.822
407.822
407.822
407.822
407.822
407.8006
407.8006
407.8006
407.8006
407.8006
414.221
414.221
414.221
414.221
414.221
415.9953
415.9953
415.9953
415.9953
415.9953
415.9949
415.9949
415.9949
415.9949
415.9949
414.596
414.596
414.596
414.596
414.596
408.2694
408.2694
408.2694
408.2694
408.2694
408.067
408.067
408.067
408.067
408.067
415.5074
415.5074
415.5074
415.5074
415.5074
416.9369
416.9369
416.9369
416.9369
416.9369
416.9749
416.9749
416.9749
416.9749
416.9749
415.612
415.612
415.612
415.612
415.612
409.3357
409.3357
409.3357
409.3357
409.3357
408.8094
408.8094
408.8094
408.8094
408.8094
415.3935
415.3935
415.3935
415.3935
415.3935
416.9227
416.9227
416.9227
416.9227
416.9227
417.1817
417.1817
417.1817
417.1817
417.1817
415.8152
415.8152
415.8152
415.8152
415.8152
407.902
407.902
407.902
407.902
407.902
402.6589
402.6589
402.6589
402.6589
402.6589
400.6396
400.6396
400.6396
400.6396
400.6396
405.0974
405.0974
405.0974
405.0974
405.0974
412.3412
412.3412
412.3412
412.3412
412.3412
413.7812
413.7812
413.7812
413.7812
413.7812
413.4935
413.4935
413.4935
413.4935
413.4935
411.4432
411.4432
411.4432
411.4432
411.4432
405.4012
405.4012
405.4012
405.4012
405.4012
405.8146
405.8146
405.8146
405.8146
405.8146
411.9317
411.9317
411.9317
411.9317
411.9317
413.6096
413.6096
413.6096
413.6096
413.6096
413.4966
413.4966
413.4966
413.4966
413.4966
411.5803
411.5803
411.5803
411.5803
411.5803
405.5573
405.5573
405.5573
405.5573
405.5573
406.1364
406.1364
406.1364
406.1364
406.1364
412.2294
412.2294
412.2294
412.2294
412.2294
413.9731
413.9731
413.9731
413.9731
413.9731
413.9074
413.9074
413.9074
413.9074
413.9074
412.0377
412.0377
412.0377
412.0377
412.0377
406.9601
406.9601
406.9601
406.9601
406.9601
407.0464
407.0464
407.0464
407.0464
407.0464
413.1363
413.1363
413.1363
413.1363
413.1363
414.9231
414.9231
414.9231
414.9231
414.9231
414.8932
414.8932
414.8932
414.8932
414.8932
413.0635
413.0635
413.0635
413.0635
413.0635
407.0041
407.0041
407.0041
407.0041
407.0041
407.0101
407.0101
407.0101
407.0101
407.0101
413.0846
413.0846
413.0846
413.0846
413.0846
414.9096
414.9096
414.9096
414.9096
414.9096
413.9502
413.9502
413.9502
413.9502
413.9502
412.1593
412.1593
412.1593
412.1593
412.1593
406.0945
406.0945
406.0945
406.0945
406.0945
405.9816
405.9816
405.9816
405.9816
405.9816
412.0403
412.0403
412.0403
412.0403
412.0403
413.535
413.535
413.535
413.535
413.535
413.5909
413.5909
413.5909
413.5909
413.5909
411.8653
411.8653
411.8653
411.8653
411.8653
405.7785
405.7785
405.7785
405.7785
405.7785
405.4521
405.4521
405.4521
405.4521
405.4521
411.5201
411.5201
411.5201
411.5201
411.5201
413.5087
413.5087
413.5087
413.5087
413.5087
413.7087
413.7087
413.7087
413.7087
413.7087
411.8032
411.8032
411.8032
411.8032
411.8032
404.5729
404.5729
404.5729
404.5729
404.5729
400.6292
400.6292
400.6292
400.6292
400.6292
398.8391
398.8391
398.8391
398.8391
398.8391
402.703
402.703
402.703
402.703
402.703
410.214
410.214
410.214
410.214
410.214
412.4896
412.4896
412.4896
412.4896
412.4896
413.2103
413.2103
413.2103
413.2103
413.2103
410.8734
410.8734
410.8734
410.8734
410.8734
404.9514
404.9514
404.9514
404.9514
404.9514
405.2538
405.2538
405.2538
405.2538
405.2538
411.4484
411.4484
411.4484
411.4484
411.4484
413.3877
413.3877
413.3877
413.3877
413.3877
413.2427
413.2427
413.2427
413.2427
413.2427
411.0352
411.0352
411.0352
411.0352
411.0352
405.0814
405.0814
405.0814
405.0814
405.0814
405.2457
405.2457
405.2457
405.2457
405.2457
410.4239
410.4239
410.4239
410.4239
410.4239
412.4065
412.4065
412.4065
412.4065
412.4065
412.33
412.33
412.33
412.33
412.33
410.2107
410.2107
410.2107
410.2107
410.2107
404.1865
404.1865
404.1865
404.1865
404.1865
403.8914
403.8914
403.8914
403.8914
403.8914
409.936
409.936
409.936
409.936
409.936
411.9884
411.9884
411.9884
411.9884
411.9884
411.954
411.954
411.954
411.954
411.954
409.8491
409.8491
409.8491
409.8491
409.8491
403.8547
403.8547
403.8547
403.8547
403.8547
403.8821
403.8821
403.8821
403.8821
403.8821
409.9362
409.9362
409.9362
409.9362
409.9362
412.0018
412.0018
412.0018
412.0018
412.0018
412.012
412.012
412.012
412.012
412.012
410.4244
410.4244
410.4244
410.4244
410.4244
404.3265
404.3265
404.3265
404.3265
404.3265
404.264
404.264
404.264
404.264
404.264
410.2464
410.2464
410.2464
410.2464
410.2464
412.3996
412.3996
412.3996
412.3996
412.3996
413.7125
413.7125
413.7125
413.7125
413.7125
411.7391
411.7391
411.7391
411.7391
411.7391
405.5732
405.5732
405.5732
405.5732
405.5732
405.3674
405.3674
405.3674
405.3674
405.3674
411.3179
411.3179
411.3179
411.3179
411.3179
414.3989
414.3989
414.3989
414.3989
414.3989
414.5413
414.5413
414.5413
414.5413
414.5413
412.158
412.158
412.158
412.158
412.158
404.6346
404.6346
404.6346
404.6346
404.6346
400.9071
400.9071
400.9071
400.9071
400.9071
399.5717
399.5717
399.5717
399.5717
399.5717
403.0783
403.0783
403.0783
403.0783
403.0783
410.7706
410.7706
410.7706
410.7706
410.7706
413.5068
413.5068
413.5068
413.5068
413.5068
413.3241
413.3241
413.3241
413.3241
413.3241
410.0316
410.0316
410.0316
410.0316
410.0316
404.1283
404.1283
404.1283
404.1283
404.1283
404.3809
404.3809
404.3809
404.3809
404.3809
410.7712
410.7712
410.7712
410.7712
410.7712
412.8443
412.8443
412.8443
412.8443
412.8443
411.6035
411.6035
411.6035
411.6035
411.6035
409.203
409.203
409.203
409.203
409.203
403.1645
403.1645
403.1645
403.1645
403.1645
403.3041
403.3041
403.3041
403.3041
403.3041
409.5519
409.5519
409.5519
409.5519
409.5519
411.3535
411.3535
411.3535
411.3535
411.3535
411.2767
411.2767
411.2767
411.2767
411.2767
408.9629
408.9629
408.9629
408.9629
408.9629
402.837
402.837
402.837
402.837
402.837
402.9024
402.9024
402.9024
402.9024
402.9024
409.0172
409.0172
409.0172
409.0172
409.0172
411.2804
411.2804
411.2804
411.2804
411.2804
411.2426
411.2426
411.2426
411.2426
411.2426
408.9229
408.9229
408.9229
408.9229
408.9229
402.8315
402.8315
402.8315
402.8315
402.8315
403.1818
403.1818
403.1818
403.1818
403.1818
409.3497
409.3497
409.3497
409.3497
409.3497
411.6081
411.6081
411.6081
411.6081
411.6081
411.6102
411.6102
411.6102
411.6102
411.6102
409.3609
409.3609
409.3609
409.3609
409.3609
403.9169
403.9169
403.9169
403.9169
403.9169
403.8861
403.8861
403.8861
403.8861
403.8861
409.9725
409.9725
409.9725
409.9725
409.9725
412.32
412.32
412.32
412.32
412.32
412.4125
412.4125
412.4125
412.4125
412.4125
410.2628
410.2628
410.2628
410.2628
410.2628
403.9126
403.9126
403.9126
403.9126
403.9126
403.7631
403.7631
403.7631
403.7631
403.7631
409.6887
409.6887
409.6887
409.6887
409.6887
412.1683
412.1683
412.1683
412.1683
412.1683
411.453
411.453
411.453
411.453
411.453
408.6158
408.6158
408.6158
408.6158
408.6158
400.9646
400.9646
400.9646
400.9646
400.9646
397.6296
397.6296
397.6296
397.6296
397.6296
396.1803
396.1803
396.1803
396.1803
396.1803
399.1911
399.1911
399.1911
399.1911
399.1911
407.1081
407.1081
407.1081
407.1081
407.1081
410.1275
410.1275
410.1275
410.1275
410.1275
409.9981
409.9981
409.9981
409.9981
409.9981
407.302
407.302
407.302
407.302
407.302
401.3118
401.3118
401.3118
401.3118
401.3118
401.5905
401.5905
401.5905
401.5905
401.5905
408.1136
408.1136
408.1136
408.1136
408.1136
410.3221
410.3221
410.3221
410.3221
410.3221
410.1439
410.1439
410.1439
410.1439
410.1439
407.9369
407.9369
407.9369
407.9369
407.9369
401.6999
401.6999
401.6999
401.6999
401.6999
401.8195
401.8195
401.8195
401.8195
401.8195
408.2248
408.2248
408.2248
408.2248
408.2248
410.5744
410.5744
410.5744
410.5744
410.5744
411.2731
411.2731
411.2731
411.2731
411.2731
408.8123
408.8123
408.8123
408.8123
408.8123
402.5048
402.5048
402.5048
402.5048
402.5048
402.5668
402.5668
402.5668
402.5668
402.5668
408.9013
408.9013
408.9013
408.9013
408.9013
411.2928
411.2928
411.2928
411.2928
411.2928
411.2526
411.2526
411.2526
411.2526
411.2526
408.7989
408.7989
408.7989
408.7989
408.7989
402.5069
402.5069
402.5069
402.5069
402.5069
402.5593
402.5593
402.5593
402.5593
402.5593
408.1364
408.1364
408.1364
408.1364
408.1364
410.5354
410.5354
410.5354
410.5354
410.5354
410.5271
410.5271
410.5271
410.5271
410.5271
408.1175
408.1175
408.1175
408.1175
408.1175
401.7542
401.7542
401.7542
401.7542
401.7542
401.4363
401.4363
401.4363
401.4363
401.4363
407.7129
407.7129
407.7129
407.7129
407.7129
410.1737
410.1737
410.1737
410.1737
410.1737
410.2735
410.2735
410.2735
410.2735
410.2735
408.0057
408.0057
408.0057
408.0057
408.0057
401.5195
401.5195
401.5195
401.5195
401.5195
401.3467
401.3467
401.3467
401.3467
401.3467
407.3614
407.3614
407.3614
407.3614
407.3614
409.9761
409.9761
409.9761
409.9761
409.9761
409.9838
409.9838
409.9838
409.9838
409.9838
407.1627
407.1627
407.1627
407.1627
407.1627
399.2573
399.2573
399.2573
399.2573
399.2573
396.0983
396.0983
396.0983
396.0983
396.0983
394.8123
394.8123
394.8123
394.8123
394.8123
398.0872
398.0872
398.0872
398.0872
398.0872
407.0526
407.0526
407.0526
407.0526
407.0526
410.2918
410.2918
410.2918
410.2918
410.2918
410.2238
410.2238
410.2238
410.2238
410.2238
407.4633
407.4633
407.4633
407.4633
407.4633
401.2465
401.2465
401.2465
401.2465
401.2465
401.4837
401.4837
401.4837
401.4837
401.4837
408.1764
408.1764
408.1764
408.1764
408.1764
410.5373
410.5373
410.5373
410.5373
410.5373
410.3696
410.3696
410.3696
410.3696
410.3696
407.7306
407.7306
407.7306
407.7306
407.7306
400.558
400.558
400.558
400.558
400.558
400.6649
400.6649
400.6649
400.6649
400.6649
407.2374
407.2374
407.2374
407.2374
407.2374
409.7079
409.7079
409.7079
409.7079
409.7079
409.6374
409.6374
409.6374
409.6374
409.6374
406.7417
406.7417
406.7417
406.7417
406.7417
400.2837
400.2837
400.2837
400.2837
400.2837
400.3468
400.3468
400.3468
400.3468
400.3468
406.8639
406.8639
406.8639
406.8639
406.8639
409.3569
409.3569
409.3569
409.3569
409.3569
409.315
409.315
409.315
409.315
409.315
406.7611
406.7611
406.7611
406.7611
406.7611
400.2881
400.2881
400.2881
400.2881
400.2881
400.3425
400.3425
400.3425
400.3425
400.3425
406.8466
406.8466
406.8466
406.8466
406.8466
409.6817
409.6817
409.6817
409.6817
409.6817
409.6656
409.6656
409.6656
409.6656
409.6656
407.133
407.133
407.133
407.133
407.133
400.6052
400.6052
400.6052
400.6052
400.6052
400.6165
400.6165
400.6165
400.6165
400.6165
407.8352
407.8352
407.8352
407.8352
407.8352
410.4114
410.4114
410.4114
410.4114
410.4114
410.4956
410.4956
410.4956
410.4956
410.4956
408.0735
408.0735
408.0735
408.0735
408.0735
401.4188
401.4188
401.4188
401.4188
401.4188
401.2908
401.2908
401.2908
401.2908
401.2908
407.5329
407.5329
407.5329
407.5329
407.5329
410.2074
410.2074
410.2074
410.2074
410.2074
410.146
410.146
410.146
410.146
410.146
406.7874
406.7874
406.7874
406.7874
406.7874
397.8403
397.8403
397.8403
397.8403
397.8403
394.7369
394.7369
394.7369
394.7369
394.7369
393.6081
393.6081
393.6081
393.6081
393.6081
396.895
396.895
396.895
396.895
396.895
405.3486
405.3486
405.3486
405.3486
405.3486
408.4368
408.4368
408.4368
408.4368
408.4368
408.4272
408.4272
408.4272
408.4272
408.4272
405.6282
405.6282
405.6282
405.6282
405.6282
399.2216
399.2216
399.2216
399.2216
399.2216
399.4208
399.4208
399.4208
399.4208
399.4208
406.2144
406.2144
406.2144
406.2144
406.2144
408.7034
408.7034
408.7034
408.7034
408.7034
408.5637
408.5637
408.5637
408.5637
408.5637
405.8752
405.8752
405.8752
405.8752
405.8752
399.2967
399.2967
399.2967
399.2967
399.2967
399.6946
399.6946
399.6946
399.6946
399.6946
406.3675
406.3675
406.3675
406.3675
406.3675
408.9649
408.9649
408.9649
408.9649
408.9649
408.9018
408.9018
408.9018
408.9018
408.9018
406.1904
406.1904
406.1904
406.1904
406.1904
400.3941
400.3941
400.3941
400.3941
400.3941
400.487
400.487
400.487
400.487
400.487
407.1737
407.1737
407.1737
407.1737
407.1737
409.7446
409.7446
409.7446
409.7446
409.7446
409.7015
409.7015
409.7015
409.7015
409.7015
407.0709
407.0709
407.0709
407.0709
407.0709
400.4284
400.4284
400.4284
400.4284
400.4284
400.4567
400.4567
400.4567
400.4567
400.4567
407.0703
407.0703
407.0703
407.0703
407.0703
409.7218
409.7218
409.7218
409.7218
409.7218
408.9276
408.9276
408.9276
408.9276
408.9276
406.2666
406.2666
406.2666
406.2666
406.2666
399.6407
399.6407
399.6407
399.6407
399.6407
399.6746
399.6746
399.6746
399.6746
399.6746
406.305
406.305
406.305
406.305
406.305
408.6173
408.6173
408.6173
408.6173
408.6173
408.6725
408.6725
408.6725
408.6725
408.6725
406.1226
406.1226
406.1226
406.1226
406.1226
399.3652
399.3652
399.3652
399.3652
399.3652
399.2756
399.2756
399.2756
399.2756
399.2756
405.7066
405.7066
405.7066
405.7066
405.7066
408.4185
408.4185
408.4185
408.4185
408.4185
408.2932
408.2932
408.2932
408.2932
408.2932
404.7723
404.7723
404.7723
404.7723
404.7723
396.3432
396.3432
396.3432
396.3432
396.3432
393.5433
393.5433
393.5433
393.5433
393.5433
392.5572
392.5572
392.5572
392.5572
392.5572
395.8803
395.8803
395.8803
395.8803
395.8803
404.5529
404.5529
404.5529
404.5529
404.5529
408.0997
408.0997
408.0997
408.0997
408.0997
408.917
408.917
408.917
408.917
408.917
406.088
406.088
406.088
406.088
406.088
399.4954
399.4954
399.4954
399.4954
399.4954
399.6612
399.6612
399.6612
399.6612
399.6612
406.5484
406.5484
406.5484
406.5484
406.5484
409.1757
409.1757
409.1757
409.1757
409.1757
409.0737
409.0737
409.0737
409.0737
409.0737
406.346
406.346
406.346
406.346
406.346
399.6713
399.6713
399.6713
399.6713
399.6713
399.6615
399.6615
399.6615
399.6615
399.6615
405.563
405.563
405.563
405.563
405.563
408.3177
408.3177
408.3177
408.3177
408.3177
408.2792
408.2792
408.2792
408.2792
408.2792
405.4693
405.4693
405.4693
405.4693
405.4693
398.8474
398.8474
398.8474
398.8474
398.8474
398.6603
398.6603
398.6603
398.6603
398.6603
405.4283
405.4283
405.4283
405.4283
405.4283
408.0698
408.0698
408.0698
408.0698
408.0698
408.0262
408.0262
408.0262
408.0262
408.0262
405.3223
405.3223
405.3223
405.3223
405.3223
398.6146
398.6146
398.6146
398.6146
398.6146
398.6198
398.6198
398.6198
398.6198
398.6198
405.2827
405.2827
405.2827
405.2827
405.2827
408.0277
408.0277
408.0277
408.0277
408.0277
407.9795
407.9795
407.9795
407.9795
407.9795
405.5473
405.5473
405.5473
405.5473
405.5473
398.9382
398.9382
398.9382
398.9382
398.9382
399.0721
399.0721
399.0721
399.0721
399.0721
405.7844
405.7844
405.7844
405.7844
405.7844
408.4446
408.4446
408.4446
408.4446
408.4446
409.5222
409.5222
409.5222
409.5222
409.5222
406.8508
406.8508
406.8508
406.8508
406.8508
399.9943
399.9943
399.9943
399.9943
399.9943
399.9394
399.9394
399.9394
399.9394
399.9394
406.5596
406.5596
406.5596
406.5596
406.5596
410.0236
410.0236
410.0236
410.0236
410.0236
409.8415
409.8415
409.8415
409.8415
409.8415
406.1592
406.1592
406.1592
406.1592
406.1592
397.4785
397.4785
397.4785
397.4785
397.4785
394.3236
394.3236
394.3236
394.3236
394.3236
393.8249
393.8249
393.8249
393.8249
393.8249
397.2038
397.2038
397.2038
397.2038
397.2038
406.0786
406.0786
406.0786
406.0786
406.0786
409.774
409.774
409.774
409.774
409.774
409.8657
409.8657
409.8657
409.8657
409.8657
406.3501
406.3501
406.3501
406.3501
406.3501
399.6262
399.6262
399.6262
399.6262
399.6262
399.7574
399.7574
399.7574
399.7574
399.7574
406.6881
406.6881
406.6881
406.6881
406.6881
409.4162
409.4162
409.4162
409.4162
409.4162
408.3151
408.3151
408.3151
408.3151
408.3151
405.5615
405.5615
405.5615
405.5615
405.5615
398.8616
398.8616
398.8616
398.8616
398.8616
398.7452
398.7452
398.7452
398.7452
398.7452
405.3437
405.3437
405.3437
405.3437
405.3437
407.8792
407.8792
407.8792
407.8792
407.8792
407.8827
407.8827
407.8827
407.8827
407.8827
405.0344
405.0344
405.0344
405.0344
405.0344
398.325
398.325
398.325
398.325
398.325
398.4245
398.4245
398.4245
398.4245
398.4245
405.2099
405.2099
405.2099
405.2099
405.2099
407.9531
407.9531
407.9531
407.9531
407.9531
407.9088
407.9088
407.9088
407.9088
407.9088
405.1024
405.1024
405.1024
405.1024
405.1024
398.3444
398.3444
398.3444
398.3444
398.3444
398.6307
398.6307
398.6307
398.6307
398.6307
405.3891
405.3891
405.3891
405.3891
405.3891
408.1743
408.1743
408.1743
408.1743
408.1743
408.0821
408.0821
408.0821
408.0821
408.0821
405.119
405.119
405.119
405.119
405.119
399.236
399.236
399.236
399.236
399.236
399.4772
399.4772
399.4772
399.4772
399.4772
406.2297
406.2297
406.2297
406.2297
406.2297
408.9212
408.9212
408.9212
408.9212
408.9212
408.8933
408.8933
408.8933
408.8933
408.8933
406.0805
406.0805
406.0805
406.0805
406.0805
399.1979
399.1979
399.1979
399.1979
399.1979
399.1811
399.1811
399.1811
399.1811
399.1811
405.9216
405.9216
405.9216
405.9216
405.9216
408.6745
408.6745
408.6745
408.6745
408.6745
407.7535
407.7535
407.7535
407.7535
407.7535
403.9408
403.9408
403.9408
403.9408
403.9408
395.1187
395.1187
395.1187
395.1187
395.1187
391.9349
391.9349
391.9349
391.9349
391.9349
391.1784
391.1784
391.1784
391.1784
391.1784
394.3077
394.3077
394.3077
394.3077
394.3077
403.2637
403.2637
403.2637
403.2637
403.2637
407.0833
407.0833
407.0833
407.0833
407.0833
407.2327
407.2327
407.2327
407.2327
407.2327
404.3605
404.3605
404.3605
404.3605
404.3605
397.5819
397.5819
397.5819
397.5819
397.5819
397.6842
397.6842
397.6842
397.6842
397.6842
404.606
404.606
404.606
404.606
404.606
407.4288
407.4288
407.4288
407.4288
407.4288
407.4019
407.4019
407.4019
407.4019
407.4019
404.9028
404.9028
404.9028
404.9028
404.9028
398.2133
398.2133
398.2133
398.2133
398.2133
397.99
397.99
397.99
397.99
397.99
404.5099
404.5099
404.5099
404.5099
404.5099
407.5134
407.5134
407.5134
407.5134
407.5134
408.2473
408.2473
408.2473
408.2473
408.2473
405.3853
405.3853
405.3853
405.3853
405.3853
398.6099
398.6099
398.6099
398.6099
398.6099
398.65
398.65
398.65
398.65
398.65
405.4218
405.4218
405.4218
405.4218
405.4218
408.2795
408.2795
408.2795
408.2795
408.2795
408.2346
408.2346
408.2346
408.2346
408.2346
405.3109
405.3109
405.3109
405.3109
405.3109
398.5853
398.5853
398.5853
398.5853
398.5853
398.6701
398.6701
398.6701
398.6701
398.6701
404.8124
404.8124
404.8124
404.8124
404.8124
407.607
407.607
407.607
407.607
407.607
407.4586
407.4586
407.4586
407.4586
407.4586
404.3909
404.3909
404.3909
404.3909
404.3909
397.9206
397.9206
397.9206
397.9206
397.9206
397.9994
397.9994
397.9994
397.9994
397.9994
404.7296
404.7296
404.7296
404.7296
404.7296
407.4333
407.4333
407.4333
407.4333
407.4333
407.3709
407.3709
407.3709
407.3709
407.3709
404.4839
404.4839
404.4839
404.4839
404.4839
397.6017
397.6017
397.6017
397.6017
397.6017
397.6125
397.6125
397.6125
397.6125
397.6125
404.4121
404.4121
404.4121
404.4121
404.4121
407.1881
407.1881
407.1881
407.1881
407.1881
406.898
406.898
406.898
406.898
406.898
403.2175
403.2175
403.2175
403.2175
403.2175
394.2787
394.2787
394.2787
394.2787
394.2787
391.0641
391.0641
391.0641
391.0641
391.0641
390.3982
390.3982
390.3982
390.3982
390.3982
393.8296
393.8296
393.8296
393.8296
393.8296
403.563
403.563
403.563
403.563
403.563
407.5102
407.5102
407.5102
407.5102
407.5102
407.7104
407.7104
407.7104
407.7104
407.7104
404.8272
404.8272
404.8272
404.8272
404.8272
398.031
398.031
398.031
398.031
398.031
398.057
398.057
398.057
398.057
398.057
404.9383
404.9383
404.9383
404.9383
404.9383
407.8703
407.8703
407.8703
407.8703
407.8703
407.8849
407.8849
407.8849
407.8849
407.8849
405.0945
405.0945
405.0945
405.0945
405.0945
397.7347
397.7347
397.7347
397.7347
397.7347
397.4521
397.4521
397.4521
397.4521
397.4521
403.9332
403.9332
403.9332
403.9332
403.9332
406.9927
406.9927
406.9927
406.9927
406.9927
407.0914
407.0914
407.0914
407.0914
407.0914
403.9575
403.9575
403.9575
403.9575
403.9575
397.1911
397.1911
397.1911
397.1911
397.1911
397.146
397.146
397.146
397.146
397.146
403.8588
403.8588
403.8588
403.8588
403.8588
406.8013
406.8013
406.8013
406.8013
406.8013
406.7562
406.7562
406.7562
406.7562
406.7562
403.7496
403.7496
403.7496
403.7496
403.7496
397.0837
397.0837
397.0837
397.0837
397.0837
397.254
397.254
397.254
397.254
397.254
404.068
404.068
404.068
404.068
404.068
407.1379
407.1379
407.1379
407.1379
407.1379
406.9463
406.9463
406.9463
406.9463
406.9463
403.8224
403.8224
403.8224
403.8224
403.8224
397.3913
397.3913
397.3913
397.3913
397.3913
397.8006
397.8006
397.8006
397.8006
397.8006
405.2051
405.2051
405.2051
405.2051
405.2051
407.929
407.929
407.929
407.929
407.929
407.8233
407.8233
407.8233
407.8233
407.8233
404.8263
404.8263
404.8263
404.8263
404.8263
397.9861
397.9861
397.9861
397.9861
397.9861
398.0741
398.0741
398.0741
398.0741
398.0741
404.8932
404.8932
404.8932
404.8932
404.8932
407.6772
407.6772
407.6772
407.6772
407.6772
407.3344
407.3344
407.3344
407.3344
407.3344
403.2557
403.2557
403.2557
403.2557
403.2557
393.545
393.545
393.545
393.545
393.545
390.3001
390.3001
390.3001
390.3001
390.3001
389.7118
389.7118
389.7118
389.7118
389.7118
393.1656
393.1656
393.1656
393.1656
393.1656
402.2924
402.2924
402.2924
402.2924
402.2924
406.08
406.08
406.08
406.08
406.08
406.3413
406.3413
406.3413
406.3413
406.3413
403.4782
403.4782
403.4782
403.4782
403.4782
396.7313
396.7313
396.7313
396.7313
396.7313
396.6507
396.6507
396.6507
396.6507
396.6507
403.3901
403.3901
403.3901
403.3901
403.3901
406.4351
406.4351
406.4351
406.4351
406.4351
406.5018
406.5018
406.5018
406.5018
406.5018
403.696
403.696
403.696
403.696
403.696
396.9996
396.9996
396.9996
396.9996
396.9996
396.9895
396.9895
396.9895
396.9895
396.9895
403.455
403.455
403.455
403.455
403.455
406.5449
406.5449
406.5449
406.5449
406.5449
406.6716
406.6716
406.6716
406.6716
406.6716
403.8045
403.8045
403.8045
403.8045
403.8045
397.722
397.722
397.722
397.722
397.722
397.6085
397.6085
397.6085
397.6085
397.6085
404.2709
404.2709
404.2709
404.2709
404.2709
407.288
407.288
407.288
407.288
407.288
407.2425
407.2425
407.2425
407.2425
407.2425
404.1636
404.1636
404.1636
404.1636
404.1636
397.5484
397.5484
397.5484
397.5484
397.5484
397.7878
397.7878
397.7878
397.7878
397.7878
404.5955
404.5955
404.5955
404.5955
404.5955
407.4011
407.4011
407.4011
407.4011
407.4011
406.507
406.507
406.507
406.507
406.507
403.3529
403.3529
403.3529
403.3529
403.3529
396.9376
396.9376
396.9376
396.9376
396.9376
397.3441
397.3441
397.3441
397.3441
397.3441
404.0883
404.0883
404.0883
404.0883
404.0883
406.5583
406.5583
406.5583
406.5583
406.5583
406.4009
406.4009
406.4009
406.4009
406.4009
403.2926
403.2926
403.2926
403.2926
403.2926
396.5921
396.5921
396.5921
396.5921
396.5921
396.7821
396.7821
396.7821
396.7821
396.7821
403.5557
403.5557
403.5557
403.5557
403.5557
406.3196
406.3196
406.3196
406.3196
406.3196
405.9142
405.9142
405.9142
405.9142
405.9142
401.7262
401.7262
401.7262
401.7262
401.7262
392.6276
392.6276
392.6276
392.6276
392.6276
389.6303
389.6303
389.6303
389.6303
389.6303
389.1105
389.1105
389.1105
389.1105
389.1105
392.5948
392.5948
392.5948
392.5948
392.5948
401.8117
401.8117
401.8117
401.8117
401.8117
405.9386
405.9386
405.9386
405.9386
405.9386
406.9403
406.9403
406.9403
406.9403
406.9403
404.106
404.106
404.106
404.106
404.106
397.4203
397.4203
397.4203
397.4203
397.4203
397.2056
397.2056
397.2056
397.2056
397.2056
403.8126
403.8126
403.8126
403.8126
403.8126
406.9589
406.9589
406.9589
406.9589
406.9589
407.0805
407.0805
407.0805
407.0805
407.0805
404.2576
404.2576
404.2576
404.2576
404.2576
397.5231
397.5231
397.5231
397.5231
397.5231
397.2724
397.2724
397.2724
397.2724
397.2724
403.0978
403.0978
403.0978
403.0978
403.0978
406.1878
406.1878
406.1878
406.1878
406.1878
406.3243
406.3243
406.3243
406.3243
406.3243
403.4587
403.4587
403.4587
403.4587
403.4587
396.7347
396.7347
396.7347
396.7347
396.7347
396.3023
396.3023
396.3023
396.3023
396.3023
402.8923
402.8923
402.8923
402.8923
402.8923
405.9417
405.9417
405.9417
405.9417
405.9417
405.8963
405.8963
405.8963
405.8963
405.8963
402.7829
402.7829
402.7829
402.7829
402.7829
396.2578
396.2578
396.2578
396.2578
396.2578
396.5543
396.5543
396.5543
396.5543
396.5543
403.3203
403.3203
403.3203
403.3203
403.3203
406.1197
406.1197
406.1197
406.1197
406.1197
405.8928
405.8928
405.8928
405.8928
405.8928
403.0992
403.0992
403.0992
403.0992
403.0992
396.6618
396.6618
396.6618
396.6618
396.6618
397.0396
397.0396
397.0396
397.0396
397.0396
403.8114
403.8114
403.8114
403.8114
403.8114
406.5654
406.5654
406.5654
406.5654
406.5654
407.3839
407.3839
407.3839
407.3839
407.3839
404.1918
404.1918
404.1918
404.1918
404.1918
397.616
397.616
397.616
397.616
397.616
397.9404
397.9404
397.9404
397.9404
397.9404
404.6569
404.6569
404.6569
404.6569
404.6569
408.0519
408.0519
408.0519