/*--------------------------------*- C++ -*----------------------------------*\
| =========                 |                                                 |
| \\      /  F ield         | OpenFOAM: The Open Source CFD Toolbox           |
|  \\    /   O peration     | Version:  4.0                                   |
|   \\  /    A nd           | Web:      www.OpenFOAM.org                      |
|    \\/     M anipulation  |                                                 |
\*---------------------------------------------------------------------------*/
FoamFile
{
    version     2.0;
    format      ascii;
    class       volScalarField;
    location    "60/electrolyte";
    object      I;
}
// * * * * * * * * * * * * * * * * * * * * * * * * * * * * * * * * * * * * * //

dimensions      [0 -2 0 0 0 1 0];

internalField   nonuniform List<scalar> 
4840
(
200.0825
200.0825
200.0825
200.0825
200.0825
199.6067
199.6067
199.6067
199.6067
199.6067
198.9333
198.9333
198.9333
198.9333
198.9333
198.7389
198.7389
198.7389
198.7389
198.7389
199.0769
199.0769
199.0769
199.0769
199.0769
199.2881
199.2881
199.2881
199.2881
199.2881
200.1001
200.1001
200.1001
200.1001
200.1001
200.1526
200.1526
200.1526
200.1526
200.1526
199.4756
199.4756
199.4756
199.4756
199.4756
200.339
200.339
200.339
200.339
200.339
200.4025
200.4025
200.4025
200.4025
200.4025
199.9688
199.9688
199.9688
199.9688
199.9688
200.606
200.606
200.606
200.606
200.606
200.4986
200.4986
200.4986
200.4986
200.4986
199.7979
199.7979
199.7979
199.7979
199.7979
200.5948
200.5948
200.5948
200.5948
200.5948
200.5193
200.5193
200.5193
200.5193
200.5193
199.9463
199.9463
199.9463
199.9463
199.9463
200.6121
200.6121
200.6121
200.6121
200.6121
200.5423
200.5423
200.5423
200.5423
200.5423
199.847
199.847
199.847
199.847
199.847
200.5306
200.5306
200.5306
200.5306
200.5306
200.53
200.53
200.53
200.53
200.53
199.8462
199.8462
199.8462
199.8462
199.8462
200.5309
200.5309
200.5309
200.5309
200.5309
200.6151
200.6151
200.6151
200.6151
200.6151
199.9494
199.9494
199.9494
199.9494
199.9494
200.5225
200.5225
200.5225
200.5225
200.5225
200.5959
200.5959
200.5959
200.5959
200.5959
199.7937
199.7937
199.7937
199.7937
199.7937
200.4955
200.4955
200.4955
200.4955
200.4955
200.5958
200.5958
200.5958
200.5958
200.5958
199.9582
199.9582
199.9582
199.9582
199.9582
200.3936
200.3936
200.3936
200.3936
200.3936
200.3356
200.3356
200.3356
200.3356
200.3356
199.474
199.474
199.474
199.474
199.474
200.1533
200.1533
200.1533
200.1533
200.1533
200.1018
200.1018
200.1018
200.1018
200.1018
199.289
199.289
199.289
199.289
199.289
199.0796
199.0796
199.0796
199.0796
199.0796
198.7284
198.7284
198.7284
198.7284
198.7284
198.9282
198.9282
198.9282
198.9282
198.9282
199.5994
199.5994
199.5994
199.5994
199.5994
200.0717
200.0717
200.0717
200.0717
200.0717
200.8458
200.8458
200.8458
200.8458
200.8458
202.4696
202.4696
202.4696
202.4696
202.4696
204.0044
204.0044
204.0044
204.0044
204.0044
204.3527
204.3527
204.3527
204.3527
204.3527
204.0447
204.0447
204.0447
204.0447
204.0447
204.1597
204.1597
204.1597
204.1597
204.1597
201.9828
201.9828
201.9828
201.9828
201.9828
202.8103
202.8103
202.8103
202.8103
202.8103
204.7455
204.7455
204.7455
204.7455
204.7455
205.0837
205.0837
205.0837
205.0837
205.0837
205.1359
205.1359
205.1359
205.1359
205.1359
204.9126
204.9126
204.9126
204.9126
204.9126
202.7911
202.7911
202.7911
202.7911
202.7911
202.8452
202.8452
202.8452
202.8452
202.8452
204.8888
204.8888
204.8888
204.8888
204.8888
205.1936
205.1936
205.1936
205.1936
205.1936
205.1999
205.1999
205.1999
205.1999
205.1999
204.9533
204.9533
204.9533
204.9533
204.9533
202.8835
202.8835
202.8835
202.8835
202.8835
202.8255
202.8255
202.8255
202.8255
202.8255
204.8958
204.8958
204.8958
204.8958
204.8958
205.2081
205.2081
205.2081
205.2081
205.2081
205.2061
205.2061
205.2061
205.2061
205.2061
204.8965
204.8965
204.8965
204.8965
204.8965
202.8267
202.8267
202.8267
202.8267
202.8267
202.887
202.887
202.887
202.887
202.887
204.9487
204.9487
204.9487
204.9487
204.9487
205.1973
205.1973
205.1973
205.1973
205.1973
205.1951
205.1951
205.1951
205.1951
205.1951
204.8873
204.8873
204.8873
204.8873
204.8873
202.8427
202.8427
202.8427
202.8427
202.8427
202.7712
202.7712
202.7712
202.7712
202.7712
204.89
204.89
204.89
204.89
204.89
205.1242
205.1242
205.1242
205.1242
205.1242
205.0783
205.0783
205.0783
205.0783
205.0783
204.7414
204.7414
204.7414
204.7414
204.7414
202.8039
202.8039
202.8039
202.8039
202.8039
201.9832
201.9832
201.9832
201.9832
201.9832
204.156
204.156
204.156
204.156
204.156
204.0384
204.0384
204.0384
204.0384
204.0384
204.3436
204.3436
204.3436
204.3436
204.3436
204.008
204.008
204.008
204.008
204.008
202.4728
202.4728
202.4728
202.4728
202.4728
200.8373
200.8373
200.8373
200.8373
200.8373
201.618
201.618
201.618
201.618
201.618
203.0863
203.0863
203.0863
203.0863
203.0863
204.4924
204.4924
204.4924
204.4924
204.4924
204.0285
204.0285
204.0285
204.0285
204.0285
203.1737
203.1737
203.1737
203.1737
203.1737
203.6089
203.6089
203.6089
203.6089
203.6089
201.9807
201.9807
201.9807
201.9807
201.9807
202.8091
202.8091
202.8091
202.8091
202.8091
204.382
204.382
204.382
204.382
204.382
204.1117
204.1117
204.1117
204.1117
204.1117
204.0165
204.0165
204.0165
204.0165
204.0165
204.3824
204.3824
204.3824
204.3824
204.3824
202.6351
202.6351
202.6351
202.6351
202.6351
202.6345
202.6345
202.6345
202.6345
202.6345
204.3532
204.3532
204.3532
204.3532
204.3532
204.1023
204.1023
204.1023
204.1023
204.1023
204.0593
204.0593
204.0593
204.0593
204.0593
204.4104
204.4104
204.4104
204.4104
204.4104
202.6848
202.6848
202.6848
202.6848
202.6848
202.6199
202.6199
202.6199
202.6199
202.6199
204.3443
204.3443
204.3443
204.3443
204.3443
204.0679
204.0679
204.0679
204.0679
204.0679
204.0671
204.0671
204.0671
204.0671
204.0671
204.3441
204.3441
204.3441
204.3441
204.3441
202.6197
202.6197
202.6197
202.6197
202.6197
202.6855
202.6855
202.6855
202.6855
202.6855
204.413
204.413
204.413
204.413
204.413
204.0626
204.0626
204.0626
204.0626
204.0626
204.103
204.103
204.103
204.103
204.103
204.3483
204.3483
204.3483
204.3483
204.3483
202.629
202.629
202.629
202.629
202.629
202.6379
202.6379
202.6379
202.6379
202.6379
204.3784
204.3784
204.3784
204.3784
204.3784
204.0144
204.0144
204.0144
204.0144
204.0144
204.1099
204.1099
204.1099
204.1099
204.1099
204.3836
204.3836
204.3836
204.3836
204.3836
202.8064
202.8064
202.8064
202.8064
202.8064
201.9826
201.9826
201.9826
201.9826
201.9826
203.6127
203.6127
203.6127
203.6127
203.6127
203.1736
203.1736
203.1736
203.1736
203.1736
204.0279
204.0279
204.0279
204.0279
204.0279
204.4949
204.4949
204.4949
204.4949
204.4949
203.0878
203.0878
203.0878
203.0878
203.0878
201.6184
201.6184
201.6184
201.6184
201.6184
201.7079
201.7079
201.7079
201.7079
201.7079
202.7369
202.7369
202.7369
202.7369
202.7369
204.1581
204.1581
204.1581
204.1581
204.1581
203.5017
203.5017
203.5017
203.5017
203.5017
202.3599
202.3599
202.3599
202.3599
202.3599
202.9941
202.9941
202.9941
202.9941
202.9941
201.3815
201.3815
201.3815
201.3815
201.3815
202.1946
202.1946
202.1946
202.1946
202.1946
203.7056
203.7056
203.7056
203.7056
203.7056
203.235
203.235
203.235
203.235
203.235
203.097
203.097
203.097
203.097
203.097
203.6434
203.6434
203.6434
203.6434
203.6434
201.9025
201.9025
201.9025
201.9025
201.9025
202.1466
202.1466
202.1466
202.1466
202.1466
203.7018
203.7018
203.7018
203.7018
203.7018
203.203
203.203
203.203
203.203
203.203
203.1592
203.1592
203.1592
203.1592
203.1592
203.7211
203.7211
203.7211
203.7211
203.7211
202.0572
202.0572
202.0572
202.0572
202.0572
202.0914
202.0914
202.0914
202.0914
202.0914
203.6945
203.6945
203.6945
203.6945
203.6945
203.1754
203.1754
203.1754
203.1754
203.1754
203.1755
203.1755
203.1755
203.1755
203.1755
203.6904
203.6904
203.6904
203.6904
203.6904
202.0865
202.0865
202.0865
202.0865
202.0865
202.0607
202.0607
202.0607
202.0607
202.0607
203.7322
203.7322
203.7322
203.7322
203.7322
203.1695
203.1695
203.1695
203.1695
203.1695
203.2043
203.2043
203.2043
203.2043
203.2043
203.6979
203.6979
203.6979
203.6979
203.6979
202.1429
202.1429
202.1429
202.1429
202.1429
201.9187
201.9187
201.9187
201.9187
201.9187
203.656
203.656
203.656
203.656
203.656
203.0966
203.0966
203.0966
203.0966
203.0966
203.2362
203.2362
203.2362
203.2362
203.2362
203.7104
203.7104
203.7104
203.7104
203.7104
202.1961
202.1961
202.1961
202.1961
202.1961
201.3868
201.3868
201.3868
201.3868
201.3868
203.0054
203.0054
203.0054
203.0054
203.0054
202.3654
202.3654
202.3654
202.3654
202.3654
203.5075
203.5075
203.5075
203.5075
203.5075
204.1533
204.1533
204.1533
204.1533
204.1533
202.7319
202.7319
202.7319
202.7319
202.7319
201.7152
201.7152
201.7152
201.7152
201.7152
201.1472
201.1472
201.1472
201.1472
201.1472
202.3296
202.3296
202.3296
202.3296
202.3296
203.5979
203.5979
203.5979
203.5979
203.5979
202.9006
202.9006
202.9006
202.9006
202.9006
201.7481
201.7481
201.7481
201.7481
201.7481
202.2977
202.2977
202.2977
202.2977
202.2977
200.9644
200.9644
200.9644
200.9644
200.9644
201.6943
201.6943
201.6943
201.6943
201.6943
203.0245
203.0245
203.0245
203.0245
203.0245
202.5378
202.5378
202.5378
202.5378
202.5378
202.3982
202.3982
202.3982
202.3982
202.3982
202.8333
202.8333
202.8333
202.8333
202.8333
201.437
201.437
201.437
201.437
201.437
201.7009
201.7009
201.7009
201.7009
201.7009
202.9914
202.9914
202.9914
202.9914
202.9914
202.4796
202.4796
202.4796
202.4796
202.4796
202.4415
202.4415
202.4415
202.4415
202.4415
202.9272
202.9272
202.9272
202.9272
202.9272
201.5374
201.5374
201.5374
201.5374
201.5374
201.6137
201.6137
201.6137
201.6137
201.6137
202.9444
202.9444
202.9444
202.9444
202.9444
202.4337
202.4337
202.4337
202.4337
202.4337
202.4334
202.4334
202.4334
202.4334
202.4334
202.9415
202.9415
202.9415
202.9415
202.9415
201.6215
201.6215
201.6215
201.6215
201.6215
201.5409
201.5409
201.5409
201.5409
201.5409
202.9297
202.9297
202.9297
202.9297
202.9297
202.4438
202.4438
202.4438
202.4438
202.4438
202.4777
202.4777
202.4777
202.4777
202.4777
202.9915
202.9915
202.9915
202.9915
202.9915
201.6985
201.6985
201.6985
201.6985
201.6985
201.4412
201.4412
201.4412
201.4412
201.4412
202.8375
202.8375
202.8375
202.8375
202.8375
202.3998
202.3998
202.3998
202.3998
202.3998
202.5402
202.5402
202.5402
202.5402
202.5402
203.0292
203.0292
203.0292
203.0292
203.0292
201.697
201.697
201.697
201.697
201.697
200.9681
200.9681
200.9681
200.9681
200.9681
202.3013
202.3013
202.3013
202.3013
202.3013
201.7466
201.7466
201.7466
201.7466
201.7466
202.908
202.908
202.908
202.908
202.908
203.6068
203.6068
203.6068
203.6068
203.6068
202.3382
202.3382
202.3382
202.3382
202.3382
201.156
201.156
201.156
201.156
201.156
200.7396
200.7396
200.7396
200.7396
200.7396
201.9492
201.9492
201.9492
201.9492
201.9492
202.9953
202.9953
202.9953
202.9953
202.9953
202.378
202.378
202.378
202.378
202.378
201.2373
201.2373
201.2373
201.2373
201.2373
201.7809
201.7809
201.7809
201.7809
201.7809
200.4675
200.4675
200.4675
200.4675
200.4675
201.2703
201.2703
201.2703
201.2703
201.2703
202.446
202.446
202.446
202.446
202.446
201.9771
201.9771
201.9771
201.9771
201.9771
201.7778
201.7778
201.7778
201.7778
201.7778
202.1876
202.1876
202.1876
202.1876
202.1876
200.914
200.914
200.914
200.914
200.914
201.2168
201.2168
201.2168
201.2168
201.2168
202.3705
202.3705
202.3705
202.3705
202.3705
201.8551
201.8551
201.8551
201.8551
201.8551
201.8106
201.8106
201.8106
201.8106
201.8106
202.2772
202.2772
202.2772
202.2772
202.2772
201.0068
201.0068
201.0068
201.0068
201.0068
201.1136
201.1136
201.1136
201.1136
201.1136
202.325
202.325
202.325
202.325
202.325
201.822
201.822
201.822
201.822
201.822
201.8214
201.8214
201.8214
201.8214
201.8214
202.3226
202.3226
202.3226
202.3226
202.3226
201.1139
201.1139
201.1139
201.1139
201.1139
201.0117
201.0117
201.0117
201.0117
201.0117
202.2814
202.2814
202.2814
202.2814
202.2814
201.8156
201.8156
201.8156
201.8156
201.8156
201.8565
201.8565
201.8565
201.8565
201.8565
202.3531
202.3531
202.3531
202.3531
202.3531
201.2221
201.2221
201.2221
201.2221
201.2221
200.9276
200.9276
200.9276
200.9276
200.9276
202.2017
202.2017
202.2017
202.2017
202.2017
201.7882
201.7882
201.7882
201.7882
201.7882
201.9527
201.9527
201.9527
201.9527
201.9527
202.4247
202.4247
202.4247
202.4247
202.4247
201.2494
201.2494
201.2494
201.2494
201.2494
200.446
200.446
200.446
200.446
200.446
201.7554
201.7554
201.7554
201.7554
201.7554
201.2169
201.2169
201.2169
201.2169
201.2169
202.3238
202.3238
202.3238
202.3238
202.3238
202.9421
202.9421
202.9421
202.9421
202.9421
201.8958
201.8958
201.8958
201.8958
201.8958
200.6867
200.6867
200.6867
200.6867
200.6867
200.2742
200.2742
200.2742
200.2742
200.2742
201.5116
201.5116
201.5116
201.5116
201.5116
202.3671
202.3671
202.3671
202.3671
202.3671
201.8348
201.8348
201.8348
201.8348
201.8348
200.7318
200.7318
200.7318
200.7318
200.7318
201.2063
201.2063
201.2063
201.2063
201.2063
199.97
199.97
199.97
199.97
199.97
200.8359
200.8359
200.8359
200.8359
200.8359
201.84
201.84
201.84
201.84
201.84
201.4139
201.4139
201.4139
201.4139
201.4139
201.2231
201.2231
201.2231
201.2231
201.2231
201.6194
201.6194
201.6194
201.6194
201.6194
200.4282
200.4282
200.4282
200.4282
200.4282
200.7274
200.7274
200.7274
200.7274
200.7274
201.7923
201.7923
201.7923
201.7923
201.7923
201.328
201.328
201.328
201.328
201.328
201.3141
201.3141
201.3141
201.3141
201.3141
201.7673
201.7673
201.7673
201.7673
201.7673
200.5864
200.5864
200.5864
200.5864
200.5864
200.6625
200.6625
200.6625
200.6625
200.6625
201.786
201.786
201.786
201.786
201.786
201.3278
201.3278
201.3278
201.3278
201.3278
201.3265
201.3265
201.3265
201.3265
201.3265
201.7819
201.7819
201.7819
201.7819
201.7819
200.6616
200.6616
200.6616
200.6616
200.6616
200.5857
200.5857
200.5857
200.5857
200.5857
201.7357
201.7357
201.7357
201.7357
201.7357
201.2827
201.2827
201.2827
201.2827
201.2827
201.3274
201.3274
201.3274
201.3274
201.3274
201.7865
201.7865
201.7865
201.7865
201.7865
200.7236
200.7236
200.7236
200.7236
200.7236
200.4222
200.4222
200.4222
200.4222
200.4222
201.6139
201.6139
201.6139
201.6139
201.6139
201.2149
201.2149
201.2149
201.2149
201.2149
201.4074
201.4074
201.4074
201.4074
201.4074
201.8373
201.8373
201.8373
201.8373
201.8373
200.8346
200.8346
200.8346
200.8346
200.8346
199.9674
199.9674
199.9674
199.9674
199.9674
201.1993
201.1993
201.1993
201.1993
201.1993
200.7252
200.7252
200.7252
200.7252
200.7252
201.8289
201.8289
201.8289
201.8289
201.8289
202.3659
202.3659
202.3659
202.3659
202.3659
201.5102
201.5102
201.5102
201.5102
201.5102
200.2648
200.2648
200.2648
200.2648
200.2648
199.8794
199.8794
199.8794
199.8794
199.8794
201.18
201.18
201.18
201.18
201.18
201.8801
201.8801
201.8801
201.8801
201.8801
201.4278
201.4278
201.4278
201.4278
201.4278
200.4042
200.4042
200.4042
200.4042
200.4042
200.7886
200.7886
200.7886
200.7886
200.7886
199.6216
199.6216
199.6216
199.6216
199.6216
200.5175
200.5175
200.5175
200.5175
200.5175
201.3947
201.3947
201.3947
201.3947
201.3947
201.0093
201.0093
201.0093
201.0093
201.0093
200.8012
200.8012
200.8012
200.8012
200.8012
201.213
201.213
201.213
201.213
201.213
200.0184
200.0184
200.0184
200.0184
200.0184
200.2769
200.2769
200.2769
200.2769
200.2769
201.3093
201.3093
201.3093
201.3093
201.3093
200.8832
200.8832
200.8832
200.8832
200.8832
200.8381
200.8381
200.8381
200.8381
200.8381
201.3003
201.3003
201.3003
201.3003
201.3003
200.1699
200.1699
200.1699
200.1699
200.1699
200.1763
200.1763
200.1763
200.1763
200.1763
201.241
201.241
201.241
201.241
201.241
200.8499
200.8499
200.8499
200.8499
200.8499
200.8481
200.8481
200.8481
200.8481
200.8481
201.2386
201.2386
201.2386
201.2386
201.2386
200.1766
200.1766
200.1766
200.1766
200.1766
200.1701
200.1701
200.1701
200.1701
200.1701
201.3028
201.3028
201.3028
201.3028
201.3028
200.8391
200.8391
200.8391
200.8391
200.8391
200.8827
200.8827
200.8827
200.8827
200.8827
201.3055
201.3055
201.3055
201.3055
201.3055
200.2744
200.2744
200.2744
200.2744
200.2744
200.0168
200.0168
200.0168
200.0168
200.0168
201.2133
201.2133
201.2133
201.2133
201.2133
200.7999
200.7999
200.7999
200.7999
200.7999
201.0096
201.0096
201.0096
201.0096
201.0096
201.3988
201.3988
201.3988
201.3988
201.3988
200.5212
200.5212
200.5212
200.5212
200.5212
199.6245
199.6245
199.6245
199.6245
199.6245
200.7874
200.7874
200.7874
200.7874
200.7874
200.4024
200.4024
200.4024
200.4024
200.4024
201.4271
201.4271
201.4271
201.4271
201.4271
201.8803
201.8803
201.8803
201.8803
201.8803
201.1799
201.1799
201.1799
201.1799
201.1799
199.8792
199.8792
199.8792
199.8792
199.8792
199.5104
199.5104
199.5104
199.5104
199.5104
200.8596
200.8596
200.8596
200.8596
200.8596
201.3805
201.3805
201.3805
201.3805
201.3805
200.9803
200.9803
200.9803
200.9803
200.9803
200.0497
200.0497
200.0497
200.0497
200.0497
200.3599
200.3599
200.3599
200.3599
200.3599
199.2536
199.2536
199.2536
199.2536
199.2536
200.1317
200.1317
200.1317
200.1317
200.1317
200.9345
200.9345
200.9345
200.9345
200.9345
200.5755
200.5755
200.5755
200.5755
200.5755
200.3787
200.3787
200.3787
200.3787
200.3787
200.8031
200.8031
200.8031
200.8031
200.8031
199.6741
199.6741
199.6741
199.6741
199.6741
199.8757
199.8757
199.8757
199.8757
199.8757
200.8836
200.8836
200.8836
200.8836
200.8836
200.4955
200.4955
200.4955
200.4955
200.4955
200.4606
200.4606
200.4606
200.4606
200.4606
200.9398
200.9398
200.9398
200.9398
200.9398
199.8618
199.8618
199.8618
199.8618
199.8618
199.8172
199.8172
199.8172
199.8172
199.8172
200.8587
200.8587
200.8587
200.8587
200.8587
200.508
200.508
200.508
200.508
200.508
200.5068
200.5068
200.5068
200.5068
200.5068
200.8576
200.8576
200.8576
200.8576
200.8576
199.8196
199.8196
199.8196
199.8196
199.8196
199.8643
199.8643
199.8643
199.8643
199.8643
200.9761
200.9761
200.9761
200.9761
200.9761
200.4942
200.4942
200.4942
200.4942
200.4942
200.495
200.495
200.495
200.495
200.495
200.8819
200.8819
200.8819
200.8819
200.8819
199.8737
199.8737
199.8737
199.8737
199.8737
199.6776
199.6776
199.6776
199.6776
199.6776
200.809
200.809
200.809
200.809
200.809
200.3836
200.3836
200.3836
200.3836
200.3836
200.5824
200.5824
200.5824
200.5824
200.5824
200.9444
200.9444
200.9444
200.9444
200.9444
200.1378
200.1378
200.1378
200.1378
200.1378
199.2644
199.2644
199.2644
199.2644
199.2644
200.3653
200.3653
200.3653
200.3653
200.3653
200.0527
200.0527
200.0527
200.0527
200.0527
200.9848
200.9848
200.9848
200.9848
200.9848
201.382
201.382
201.382
201.382
201.382
200.8612
200.8612
200.8612
200.8612
200.8612
199.5198
199.5198
199.5198
199.5198
199.5198
199.1687
199.1687
199.1687
199.1687
199.1687
200.5369
200.5369
200.5369
200.5369
200.5369
200.9599
200.9599
200.9599
200.9599
200.9599
200.6129
200.6129
200.6129
200.6129
200.6129
199.8188
199.8188
199.8188
199.8188
199.8188
200.0542
200.0542
200.0542
200.0542
200.0542
199.0105
199.0105
199.0105
199.0105
199.0105
199.8588
199.8588
199.8588
199.8588
199.8588
200.6233
200.6233
200.6233
200.6233
200.6233
200.264
200.264
200.264
200.264
200.264
200.0925
200.0925
200.0925
200.0925
200.0925
200.5214
200.5214
200.5214
200.5214
200.5214
199.4212
199.4212
199.4212
199.4212
199.4212
199.5668
199.5668
199.5668
199.5668
199.5668
200.5274
200.5274
200.5274
200.5274
200.5274
200.165
200.165
200.165
200.165
200.165
200.1459
200.1459
200.1459
200.1459
200.1459
200.6236
200.6236
200.6236
200.6236
200.6236
199.5171
199.5171
199.5171
199.5171
199.5171
199.467
199.467
199.467
199.467
199.467
200.4917
200.4917
200.4917
200.4917
200.4917
200.1547
200.1547
200.1547
200.1547
200.1547
200.1542
200.1542
200.1542
200.1542
200.1542
200.4901
200.4901
200.4901
200.4901
200.4901
199.4672
199.4672
199.4672
199.4672
199.4672
199.5154
199.5154
199.5154
199.5154
199.5154
200.6247
200.6247
200.6247
200.6247
200.6247
200.1443
200.1443
200.1443
200.1443
200.1443
200.1625
200.1625
200.1625
200.1625
200.1625
200.5373
200.5373
200.5373
200.5373
200.5373
199.5531
199.5531
199.5531
199.5531
199.5531
199.4063
199.4063
199.4063
199.4063
199.4063
200.5086
200.5086
200.5086
200.5086
200.5086
200.0786
200.0786
200.0786
200.0786
200.0786
200.2888
200.2888
200.2888
200.2888
200.2888
200.6521
200.6521
200.6521
200.6521
200.6521
199.8838
199.8838
199.8838
199.8838
199.8838
199.0388
199.0388
199.0388
199.0388
199.0388
200.0794
200.0794
200.0794
200.0794
200.0794
199.8349
199.8349
199.8349
199.8349
199.8349
200.6651
200.6651
200.6651
200.6651
200.6651
201.0131
201.0131
201.0131
201.0131
201.0131
200.5904
200.5904
200.5904
200.5904
200.5904
199.2215
199.2215
199.2215
199.2215
199.2215
198.863
198.863
198.863
198.863
198.863
200.1887
200.1887
200.1887
200.1887
200.1887
200.5839
200.5839
200.5839
200.5839
200.5839
200.2812
200.2812
200.2812
200.2812
200.2812
199.558
199.558
199.558
199.558
199.558
199.7135
199.7135
199.7135
199.7135
199.7135
198.7293
198.7293
198.7293
198.7293
198.7293
199.5257
199.5257
199.5257
199.5257
199.5257
200.3002
200.3002
200.3002
200.3002
200.3002
199.9162
199.9162
199.9162
199.9162
199.9162
199.7121
199.7121
199.7121
199.7121
199.7121
200.125
200.125
200.125
200.125
200.125
199.0551
199.0551
199.0551
199.0551
199.0551
199.1968
199.1968
199.1968
199.1968
199.1968
200.1526
200.1526
200.1526
200.1526
200.1526
199.7848
199.7848
199.7848
199.7848
199.7848
199.7771
199.7771
199.7771
199.7771
199.7771
200.2424
200.2424
200.2424
200.2424
200.2424
199.1468
199.1468
199.1468
199.1468
199.1468
199.1186
199.1186
199.1186
199.1186
199.1186
200.1173
200.1173
200.1173
200.1173
200.1173
199.785
199.785
199.785
199.785
199.785
199.7853
199.7853
199.7853
199.7853
199.7853
200.1165
200.1165
200.1165
200.1165
200.1165
199.1246
199.1246
199.1246
199.1246
199.1246
199.1463
199.1463
199.1463
199.1463
199.1463
200.2452
200.2452
200.2452
200.2452
200.2452
199.7782
199.7782
199.7782
199.7782
199.7782
199.7844
199.7844
199.7844
199.7844
199.7844
200.1411
200.1411
200.1411
200.1411
200.1411
199.2286
199.2286
199.2286
199.2286
199.2286
199.0874
199.0874
199.0874
199.0874
199.0874
200.1585
200.1585
200.1585
200.1585
200.1585
199.7436
199.7436
199.7436
199.7436
199.7436
199.893
199.893
199.893
199.893
199.893
200.2772
200.2772
200.2772
200.2772
200.2772
199.4993
199.4993
199.4993
199.4993
199.4993
198.7013
198.7013
198.7013
198.7013
198.7013
199.681
199.681
199.681
199.681
199.681
199.512
199.512
199.512
199.512
199.512
200.1913
200.1913
200.1913
200.1913
200.1913
200.4944
200.4944
200.4944
200.4944
200.4944
200.0997
200.0997
200.0997
200.0997
200.0997
198.7742
198.7742
198.7742
198.7742
198.7742
198.4729
198.4729
198.4729
198.4729
198.4729
199.7161
199.7161
199.7161
199.7161
199.7161
200.1255
200.1255
200.1255
200.1255
200.1255
199.8592
199.8592
199.8592
199.8592
199.8592
199.2344
199.2344
199.2344
199.2344
199.2344
199.3602
199.3602
199.3602
199.3602
199.3602
198.44
198.44
198.44
198.44
198.44
199.1263
199.1263
199.1263
199.1263
199.1263
199.9362
199.9362
199.9362
199.9362
199.9362
199.5519
199.5519
199.5519
199.5519
199.5519
199.419
199.419
199.419
199.419
199.419
199.7923
199.7923
199.7923
199.7923
199.7923
198.7742
198.7742
198.7742
198.7742
198.7742
198.9112
198.9112
198.9112
198.9112
198.9112
199.8499
199.8499
199.8499
199.8499
199.8499
199.4848
199.4848
199.4848
199.4848
199.4848
199.5117
199.5117
199.5117
199.5117
199.5117
199.9418
199.9418
199.9418
199.9418
199.9418
198.8885
198.8885
198.8885
198.8885
198.8885
198.9042
198.9042
198.9042
198.9042
198.9042
199.8603
199.8603
199.8603
199.8603
199.8603
199.5201
199.5201
199.5201
199.5201
199.5201
199.5202
199.5202
199.5202
199.5202
199.5202
199.8549
199.8549
199.8549
199.8549
199.8549
198.9009
198.9009
198.9009
198.9009
198.9009
198.8836
198.8836
198.8836
198.8836
198.8836
199.8987
199.8987
199.8987
199.8987
199.8987
199.4673
199.4673
199.4673
199.4673
199.4673
199.4829
199.4829
199.4829
199.4829
199.4829
199.8434
199.8434
199.8434
199.8434
199.8434
198.9079
198.9079
198.9079
198.9079
198.9079
198.767
198.767
198.767
198.767
198.767
199.7879
199.7879
199.7879
199.7879
199.7879
199.4104
199.4104
199.4104
199.4104
199.4104
199.5463
199.5463
199.5463
199.5463
199.5463
199.9416
199.9416
199.9416
199.9416
199.9416
199.1287
199.1287
199.1287
199.1287
199.1287
198.4312
198.4312
198.4312
198.4312
198.4312
199.3513
199.3513
199.3513
199.3513
199.3513
199.2279
199.2279
199.2279
199.2279
199.2279
199.8551
199.8551
199.8551
199.8551
199.8551
200.1237
200.1237
200.1237
200.1237
200.1237
199.714
199.714
199.714
199.714
199.714
198.4647
198.4647
198.4647
198.4647
198.4647
198.1873
198.1873
198.1873
198.1873
198.1873
199.3574
199.3574
199.3574
199.3574
199.3574
199.841
199.841
199.841
199.841
199.841
199.5944
199.5944
199.5944
199.5944
199.5944
199.0591
199.0591
199.0591
199.0591
199.0591
199.2045
199.2045
199.2045
199.2045
199.2045
198.3386
198.3386
198.3386
198.3386
198.3386
198.8287
198.8287
198.8287
198.8287
198.8287
199.6136
199.6136
199.6136
199.6136
199.6136
199.3122
199.3122
199.3122
199.3122
199.3122
199.2131
199.2131
199.2131
199.2131
199.2131
199.5551
199.5551
199.5551
199.5551
199.5551
198.5707
198.5707
198.5707
198.5707
198.5707
198.6452
198.6452
198.6452
198.6452
198.6452
199.5118
199.5118
199.5118
199.5118
199.5118
199.2044
199.2044
199.2044
199.2044
199.2044
199.1697
199.1697
199.1697
199.1697
199.1697
199.5034
199.5034
199.5034
199.5034
199.5034
198.5791
198.5791
198.5791
198.5791
198.5791
198.6404
198.6404
198.6404
198.6404
198.6404
199.5508
199.5508
199.5508
199.5508
199.5508
199.206
199.206
199.206
199.206
199.206
199.2055
199.2055
199.2055
199.2055
199.2055
199.5483
199.5483
199.5483
199.5483
199.5483
198.6395
198.6395
198.6395
198.6395
198.6395
198.5785
198.5785
198.5785
198.5785
198.5785
199.5077
199.5077
199.5077
199.5077
199.5077
199.1728
199.1728
199.1728
199.1728
199.1728
199.2048
199.2048
199.2048
199.2048
199.2048
199.5108
199.5108
199.5108
199.5108
199.5108
198.6439
198.6439
198.6439
198.6439
198.6439
198.5659
198.5659
198.5659
198.5659
198.5659
199.5548
199.5548
199.5548
199.5548
199.5548
199.2105
199.2105
199.2105
199.2105
199.2105
199.3132
199.3132
199.3132
199.3132
199.3132
199.6247
199.6247
199.6247
199.6247
199.6247
198.8361
198.8361
198.8361
198.8361
198.8361
198.3357
198.3357
198.3357
198.3357
198.3357
199.2002
199.2002
199.2002
199.2002
199.2002
199.0572
199.0572
199.0572
199.0572
199.0572
199.5949
199.5949
199.5949
199.5949
199.5949
199.8413
199.8413
199.8413
199.8413
199.8413
199.3571
199.3571
199.3571
199.3571
199.3571
198.1875
198.1875
198.1875
198.1875
198.1875
197.9418
197.9418
197.9418
197.9418
197.9418
199.0391
199.0391
199.0391
199.0391
199.0391
199.5001
199.5001
199.5001
199.5001
199.5001
199.2503
199.2503
199.2503
199.2503
199.2503
198.8082
198.8082
198.8082
198.8082
198.8082
199.0373
199.0373
199.0373
199.0373
199.0373
198.2351
198.2351
198.2351
198.2351
198.2351
198.4771
198.4771
198.4771
198.4771
198.4771
199.1316
199.1316
199.1316
199.1316
199.1316
198.9707
198.9707
198.9707
198.9707
198.9707
198.9608
198.9608
198.9608
198.9608
198.9608
199.3372
199.3372
199.3372
199.3372
199.3372
198.4549
198.4549
198.4549
198.4549
198.4549
198.3955
198.3955
198.3955
198.3955
198.3955
199.0758
199.0758
199.0758
199.0758
199.0758
198.914
198.914
198.914
198.914
198.914
198.8924
198.8924
198.8924
198.8924
198.8924
199.1189
199.1189
199.1189
199.1189
199.1189
198.3807
198.3807
198.3807
198.3807
198.3807
198.5016
198.5016
198.5016
198.5016
198.5016
199.3626
199.3626
199.3626
199.3626
199.3626
199.0068
199.0068
199.0068
199.0068
199.0068
199.0053
199.0053
199.0053
199.0053
199.0053
199.3629
199.3629
199.3629
199.3629
199.3629
198.5035
198.5035
198.5035
198.5035
198.5035
198.3848
198.3848
198.3848
198.3848
198.3848
199.1692
199.1692
199.1692
199.1692
199.1692
198.9415
198.9415
198.9415
198.9415
198.9415
198.9168
198.9168
198.9168
198.9168
198.9168
199.082
199.082
199.082
199.082
199.082
198.3948
198.3948
198.3948
198.3948
198.3948
198.4504
198.4504
198.4504
198.4504
198.4504
199.3363
199.3363
199.3363
199.3363
199.3363
198.9629
198.9629
198.9629
198.9629
198.9629
198.9791
198.9791
198.9791
198.9791
198.9791
199.1473
199.1473
199.1473
199.1473
199.1473
198.4889
198.4889
198.4889
198.4889
198.4889
198.2388
198.2388
198.2388
198.2388
198.2388
199.0381
199.0381
199.0381
199.0381
199.0381
198.8108
198.8108
198.8108
198.8108
198.8108
199.2548
199.2548
199.2548
199.2548
199.2548
199.5024
199.5024
199.5024
199.5024
199.5024
199.0407
199.0407
199.0407
199.0407
199.0407
197.9506
197.9506
197.9506
197.9506
197.9506
197.7115
197.7115
197.7115
197.7115
197.7115
198.7326
198.7326
198.7326
198.7326
198.7326
199.1864
199.1864
199.1864
199.1864
199.1864
198.9516
198.9516
198.9516
198.9516
198.9516
198.6696
198.6696
198.6696
198.6696
198.6696
198.9636
198.9636
198.9636
198.9636
198.9636
198.225
198.225
198.225
198.225
198.225
198.279
198.279
198.279
198.279
198.279
198.7529
198.7529
198.7529
198.7529
198.7529
198.7359
198.7359
198.7359
198.7359
198.7359
198.8583
198.8583
198.8583
198.8583
198.8583
199.3416
199.3416
199.3416
199.3416
199.3416
198.493
198.493
198.493
198.493
198.493
198.2425
198.2425
198.2425
198.2425
198.2425
198.6434
198.6434
198.6434
198.6434
198.6434
198.6421
198.6421
198.6421
198.6421
198.6421
198.6584
198.6584
198.6584
198.6584
198.6584
198.7975
198.7975
198.7975
198.7975
198.7975
198.1195
198.1195
198.1195
198.1195
198.1195
198.282
198.282
198.282
198.282
198.282
199.1125
199.1125
199.1125
199.1125
199.1125
198.7563
198.7563
198.7563
198.7563
198.7563
198.753
198.753
198.753
198.753
198.753
199.1059
199.1059
199.1059
199.1059
199.1059
198.2743
198.2743
198.2743
198.2743
198.2743
198.1206
198.1206
198.1206
198.1206
198.1206
198.8004
198.8004
198.8004
198.8004
198.8004
198.6599
198.6599
198.6599
198.6599
198.6599
198.6437
198.6437
198.6437
198.6437
198.6437
198.6584
198.6584
198.6584
198.6584
198.6584
198.2046
198.2046
198.2046
198.2046
198.2046
198.4454
198.4454
198.4454
198.4454
198.4454
199.2984
199.2984
199.2984
199.2984
199.2984
198.8197
198.8197
198.8197
198.8197
198.8197
198.7616
198.7616
198.7616
198.7616
198.7616
198.7906
198.7906
198.7906
198.7906
198.7906
198.3128
198.3128
198.3128
198.3128
198.3128
198.2519
198.2519
198.2519
198.2519
198.2519
198.9899
198.9899
198.9899
198.9899
198.9899