/*--------------------------------*- C++ -*----------------------------------*\
| =========                 |                                                 |
| \\      /  F ield         | OpenFOAM: The Open Source CFD Toolbox           |
|  \\    /   O peration     | Version:  4.0                                   |
|   \\  /    A nd           | Web:      www.OpenFOAM.org                      |
|    \\/     M anipulation  |                                                 |
\*---------------------------------------------------------------------------*/
FoamFile
{
    version     2.0;
    format      ascii;
    class       volScalarField;
    location    "60/electrolyte";
    object      sigmaMem;
}
// * * * * * * * * * * * * * * * * * * * * * * * * * * * * * * * * * * * * * //

dimensions      [-1 -2 3 0 0 2 0];

internalField   nonuniform List<scalar> 
4840
(
6.348794
6.348794
6.348794
6.348794
6.348794
6.306046
6.306046
6.306046
6.306046
6.306046
6.275874
6.275874
6.275874
6.275874
6.275874
6.277299
6.277299
6.277299
6.277299
6.277299
6.278055
6.278055
6.278055
6.278055
6.278055
6.27617
6.27617
6.27617
6.27617
6.27617
6.29509
6.29509
6.29509
6.29509
6.29509
6.293901
6.293901
6.293901
6.293901
6.293901
6.276255
6.276255
6.276255
6.276255
6.276255
6.279019
6.279019
6.279019
6.279019
6.279019
6.279136
6.279136
6.279136
6.279136
6.279136
6.276808
6.276808
6.276808
6.276808
6.276808
6.295097
6.295097
6.295097
6.295097
6.295097
6.294872
6.294872
6.294872
6.294872
6.294872
6.27686
6.27686
6.27686
6.27686
6.27686
6.279364
6.279364
6.279364
6.279364
6.279364
6.279431
6.279431
6.279431
6.279431
6.279431
6.277047
6.277047
6.277047
6.277047
6.277047
6.295251
6.295251
6.295251
6.295251
6.295251
6.295249
6.295249
6.295249
6.295249
6.295249
6.277085
6.277085
6.277085
6.277085
6.277085
6.279516
6.279516
6.279516
6.279516
6.279516
6.279516
6.279516
6.279516
6.279516
6.279516
6.277085
6.277085
6.277085
6.277085
6.277085
6.295258
6.295258
6.295258
6.295258
6.295258
6.2953
6.2953
6.2953
6.2953
6.2953
6.27708
6.27708
6.27708
6.27708
6.27708
6.27946
6.27946
6.27946
6.27946
6.27946
6.279391
6.279391
6.279391
6.279391
6.279391
6.276872
6.276872
6.276872
6.276872
6.276872
6.294995
6.294995
6.294995
6.294995
6.294995
6.295246
6.295246
6.295246
6.295246
6.295246
6.276896
6.276896
6.276896
6.276896
6.276896
6.279203
6.279203
6.279203
6.279203
6.279203
6.278997
6.278997
6.278997
6.278997
6.278997
6.276218
6.276218
6.276218
6.276218
6.276218
6.293833
6.293833
6.293833
6.293833
6.293833
6.295025
6.295025
6.295025
6.295025
6.295025
6.276139
6.276139
6.276139
6.276139
6.276139
6.277972
6.277972
6.277972
6.277972
6.277972
6.277138
6.277138
6.277138
6.277138
6.277138
6.275644
6.275644
6.275644
6.275644
6.275644
6.305548
6.305548
6.305548
6.305548
6.305548
6.348042
6.348042
6.348042
6.348042
6.348042
6.359527
6.359527
6.359527
6.359527
6.359527
6.316459
6.316459
6.316459
6.316459
6.316459
6.273195
6.273195
6.273195
6.273195
6.273195
6.267765
6.267765
6.267765
6.267765
6.267765
6.268343
6.268343
6.268343
6.268343
6.268343
6.272344
6.272344
6.272344
6.272344
6.272344
6.300837
6.300837
6.300837
6.300837
6.300837
6.299608
6.299608
6.299608
6.299608
6.299608
6.272359
6.272359
6.272359
6.272359
6.272359
6.269393
6.269393
6.269393
6.269393
6.269393
6.269609
6.269609
6.269609
6.269609
6.269609
6.273116
6.273116
6.273116
6.273116
6.273116
6.301048
6.301048
6.301048
6.301048
6.301048
6.300812
6.300812
6.300812
6.300812
6.300812
6.273179
6.273179
6.273179
6.273179
6.273179
6.26995
6.26995
6.26995
6.26995
6.26995
6.270084
6.270084
6.270084
6.270084
6.270084
6.273492
6.273492
6.273492
6.273492
6.273492
6.301373
6.301373
6.301373
6.301373
6.301373
6.301348
6.301348
6.301348
6.301348
6.301348
6.273532
6.273532
6.273532
6.273532
6.273532
6.270187
6.270187
6.270187
6.270187
6.270187
6.270186
6.270186
6.270186
6.270186
6.270186
6.27353
6.27353
6.27353
6.27353
6.27353
6.301349
6.301349
6.301349
6.301349
6.301349
6.301379
6.301379
6.301379
6.301379
6.301379
6.273444
6.273444
6.273444
6.273444
6.273444
6.270034
6.270034
6.270034
6.270034
6.270034
6.269956
6.269956
6.269956
6.269956
6.269956
6.27319
6.27319
6.27319
6.27319
6.27319
6.300849
6.300849
6.300849
6.300849
6.300849
6.301076
6.301076
6.301076
6.301076
6.301076
6.273128
6.273128
6.273128
6.273128
6.273128
6.26963
6.26963
6.26963
6.26963
6.26963
6.26939
6.26939
6.26939
6.26939
6.26939
6.272343
6.272343
6.272343
6.272343
6.272343
6.299577
6.299577
6.299577
6.299577
6.299577
6.30081
6.30081
6.30081
6.30081
6.30081
6.272333
6.272333
6.272333
6.272333
6.272333
6.268321
6.268321
6.268321
6.268321
6.268321
6.267715
6.267715
6.267715
6.267715
6.267715
6.273114
6.273114
6.273114
6.273114
6.273114
6.316238
6.316238
6.316238
6.316238
6.316238
6.359152
6.359152
6.359152
6.359152
6.359152
6.377549
6.377549
6.377549
6.377549
6.377549
6.33367
6.33367
6.33367
6.33367
6.33367
6.275502
6.275502
6.275502
6.275502
6.275502
6.26261
6.26261
6.26261
6.26261
6.26261
6.262688
6.262688
6.262688
6.262688
6.262688
6.272022
6.272022
6.272022
6.272022
6.272022
6.309061
6.309061
6.309061
6.309061
6.309061
6.307728
6.307728
6.307728
6.307728
6.307728
6.271846
6.271846
6.271846
6.271846
6.271846
6.263531
6.263531
6.263531
6.263531
6.263531
6.263793
6.263793
6.263793
6.263793
6.263793
6.272689
6.272689
6.272689
6.272689
6.272689
6.309122
6.309122
6.309122
6.309122
6.309122
6.308874
6.308874
6.308874
6.308874
6.308874
6.272687
6.272687
6.272687
6.272687
6.272687
6.264095
6.264095
6.264095
6.264095
6.264095
6.264191
6.264191
6.264191
6.264191
6.264191
6.272953
6.272953
6.272953
6.272953
6.272953
6.309352
6.309352
6.309352
6.309352
6.309352
6.309324
6.309324
6.309324
6.309324
6.309324
6.272994
6.272994
6.272994
6.272994
6.272994
6.264282
6.264282
6.264282
6.264282
6.264282
6.264279
6.264279
6.264279
6.264279
6.264279
6.272989
6.272989
6.272989
6.272989
6.272989
6.30932
6.30932
6.30932
6.30932
6.30932
6.309358
6.309358
6.309358
6.309358
6.309358
6.272949
6.272949
6.272949
6.272949
6.272949
6.264184
6.264184
6.264184
6.264184
6.264184
6.264097
6.264097
6.264097
6.264097
6.264097
6.272692
6.272692
6.272692
6.272692
6.272692
6.308894
6.308894
6.308894
6.308894
6.308894
6.309156
6.309156
6.309156
6.309156
6.309156
6.272712
6.272712
6.272712
6.272712
6.272712
6.263809
6.263809
6.263809
6.263809
6.263809
6.26353
6.26353
6.26353
6.26353
6.26353
6.271833
6.271833
6.271833
6.271833
6.271833
6.307704
6.307704
6.307704
6.307704
6.307704
6.309045
6.309045
6.309045
6.309045
6.309045
6.272016
6.272016
6.272016
6.272016
6.272016
6.262671
6.262671
6.262671
6.262671
6.262671
6.262571
6.262571
6.262571
6.262571
6.262571
6.275418
6.275418
6.275418
6.275418
6.275418
6.333473
6.333473
6.333473
6.333473
6.333473
6.37727
6.37727
6.37727
6.37727
6.37727
6.398468
6.398468
6.398468
6.398468
6.398468
6.353954
6.353954
6.353954
6.353954
6.353954
6.281309
6.281309
6.281309
6.281309
6.281309
6.261164
6.261164
6.261164
6.261164
6.261164
6.260475
6.260475
6.260475
6.260475
6.260475
6.274225
6.274225
6.274225
6.274225
6.274225
6.317333
6.317333
6.317333
6.317333
6.317333
6.316696
6.316696
6.316696
6.316696
6.316696
6.273661
6.273661
6.273661
6.273661
6.273661
6.260899
6.260899
6.260899
6.260899
6.260899
6.261223
6.261223
6.261223
6.261223
6.261223
6.274675
6.274675
6.274675
6.274675
6.274675
6.317687
6.317687
6.317687
6.317687
6.317687
6.317624
6.317624
6.317624
6.317624
6.317624
6.274719
6.274719
6.274719
6.274719
6.274719
6.261609
6.261609
6.261609
6.261609
6.261609
6.261711
6.261711
6.261711
6.261711
6.261711
6.275037
6.275037
6.275037
6.275037
6.275037
6.318113
6.318113
6.318113
6.318113
6.318113
6.318108
6.318108
6.318108
6.318108
6.318108
6.27511
6.27511
6.27511
6.27511
6.27511
6.261872
6.261872
6.261872
6.261872
6.261872
6.261869
6.261869
6.261869
6.261869
6.261869
6.275103
6.275103
6.275103
6.275103
6.275103
6.318105
6.318105
6.318105
6.318105
6.318105
6.318125
6.318125
6.318125
6.318125
6.318125
6.275104
6.275104
6.275104
6.275104
6.275104
6.261771
6.261771
6.261771
6.261771
6.261771
6.261611
6.261611
6.261611
6.261611
6.261611
6.274718
6.274718
6.274718
6.274718
6.274718
6.317638
6.317638
6.317638
6.317638
6.317638
6.317745
6.317745
6.317745
6.317745
6.317745
6.274727
6.274727
6.274727
6.274727
6.274727
6.261239
6.261239
6.261239
6.261239
6.261239
6.2609
6.2609
6.2609
6.2609
6.2609
6.273649
6.273649
6.273649
6.273649
6.273649
6.316681
6.316681
6.316681
6.316681
6.316681
6.317326
6.317326
6.317326
6.317326
6.317326
6.274223
6.274223
6.274223
6.274223
6.274223
6.260461
6.260461
6.260461
6.260461
6.260461
6.261125
6.261125
6.261125
6.261125
6.261125
6.281204
6.281204
6.281204
6.281204
6.281204
6.353759
6.353759
6.353759
6.353759
6.353759
6.398257
6.398257
6.398257
6.398257
6.398257
6.417478
6.417478
6.417478
6.417478
6.417478
6.370301
6.370301
6.370301
6.370301
6.370301
6.287541
6.287541
6.287541
6.287541
6.287541
6.261776
6.261776
6.261776
6.261776
6.261776
6.260247
6.260247
6.260247
6.260247
6.260247
6.276815
6.276815
6.276815
6.276815
6.276815
6.324526
6.324526
6.324526
6.324526
6.324526
6.324101
6.324101
6.324101
6.324101
6.324101
6.276078
6.276078
6.276078
6.276078
6.276078
6.260199
6.260199
6.260199
6.260199
6.260199
6.260542
6.260542
6.260542
6.260542
6.260542
6.277095
6.277095
6.277095
6.277095
6.277095
6.32491
6.32491
6.32491
6.32491
6.32491
6.324874
6.324874
6.324874
6.324874
6.324874
6.277069
6.277069
6.277069
6.277069
6.277069
6.260868
6.260868
6.260868
6.260868
6.260868
6.260968
6.260968
6.260968
6.260968
6.260968
6.277359
6.277359
6.277359
6.277359
6.277359
6.325151
6.325151
6.325151
6.325151
6.325151
6.325127
6.325127
6.325127
6.325127
6.325127
6.277366
6.277366
6.277366
6.277366
6.277366
6.261051
6.261051
6.261051
6.261051
6.261051
6.261047
6.261047
6.261047
6.261047
6.261047
6.277356
6.277356
6.277356
6.277356
6.277356
6.325119
6.325119
6.325119
6.325119
6.325119
6.325134
6.325134
6.325134
6.325134
6.325134
6.27736
6.27736
6.27736
6.27736
6.27736
6.260963
6.260963
6.260963
6.260963
6.260963
6.260847
6.260847
6.260847
6.260847
6.260847
6.277061
6.277061
6.277061
6.277061
6.277061
6.324799
6.324799
6.324799
6.324799
6.324799
6.324852
6.324852
6.324852
6.324852
6.324852
6.277062
6.277062
6.277062
6.277062
6.277062
6.260503
6.260503
6.260503
6.260503
6.260503
6.260219
6.260219
6.260219
6.260219
6.260219
6.276094
6.276094
6.276094
6.276094
6.276094
6.324125
6.324125
6.324125
6.324125
6.324125
6.324561
6.324561
6.324561
6.324561
6.324561
6.276846
6.276846
6.276846
6.276846
6.276846
6.260315
6.260315
6.260315
6.260315
6.260315
6.26188
6.26188
6.26188
6.26188
6.26188
6.287621
6.287621
6.287621
6.287621
6.287621
6.370383
6.370383
6.370383
6.370383
6.370383
6.417571
6.417571
6.417571
6.417571
6.417571
6.434412
6.434412
6.434412
6.434412
6.434412
6.384273
6.384273
6.384273
6.384273
6.384273
6.293901
6.293901
6.293901
6.293901
6.293901
6.263578
6.263578
6.263578
6.263578
6.263578
6.26101
6.26101
6.26101
6.26101
6.26101
6.279329
6.279329
6.279329
6.279329
6.279329
6.330405
6.330405
6.330405
6.330405
6.330405
6.330067
6.330067
6.330067
6.330067
6.330067
6.278613
6.278613
6.278613
6.278613
6.278613
6.260454
6.260454
6.260454
6.260454
6.260454
6.260682
6.260682
6.260682
6.260682
6.260682
6.279356
6.279356
6.279356
6.279356
6.279356
6.330608
6.330608
6.330608
6.330608
6.330608
6.330611
6.330611
6.330611
6.330611
6.330611
6.27947
6.27947
6.27947
6.27947
6.27947
6.26104
6.26104
6.26104
6.26104
6.26104
6.261121
6.261121
6.261121
6.261121
6.261121
6.27966
6.27966
6.27966
6.27966
6.27966
6.330846
6.330846
6.330846
6.330846
6.330846
6.330849
6.330849
6.330849
6.330849
6.330849
6.279696
6.279696
6.279696
6.279696
6.279696
6.26122
6.26122
6.26122
6.26122
6.26122
6.261215
6.261215
6.261215
6.261215
6.261215
6.279684
6.279684
6.279684
6.279684
6.279684
6.330844
6.330844
6.330844
6.330844
6.330844
6.330876
6.330876
6.330876
6.330876
6.330876
6.279695
6.279695
6.279695
6.279695
6.279695
6.261147
6.261147
6.261147
6.261147
6.261147
6.261052
6.261052
6.261052
6.261052
6.261052
6.279456
6.279456
6.279456
6.279456
6.279456
6.330649
6.330649
6.330649
6.330649
6.330649
6.330668
6.330668
6.330668
6.330668
6.330668
6.279413
6.279413
6.279413
6.279413
6.279413
6.260726
6.260726
6.260726
6.260726
6.260726
6.260434
6.260434
6.260434
6.260434
6.260434
6.278579
6.278579
6.278579
6.278579
6.278579
6.330024
6.330024
6.330024
6.330024
6.330024
6.330375
6.330375
6.330375
6.330375
6.330375
6.279312
6.279312
6.279312
6.279312
6.279312
6.260949
6.260949
6.260949
6.260949
6.260949
6.263456
6.263456
6.263456
6.263456
6.263456
6.293733
6.293733
6.293733
6.293733
6.293733
6.384017
6.384017
6.384017
6.384017
6.384017
6.434129
6.434129
6.434129
6.434129
6.434129
6.448567
6.448567
6.448567
6.448567
6.448567
6.395493
6.395493
6.395493
6.395493
6.395493
6.299049
6.299049
6.299049
6.299049
6.299049
6.265416
6.265416
6.265416
6.265416
6.265416
6.261985
6.261985
6.261985
6.261985
6.261985
6.281448
6.281448
6.281448
6.281448
6.281448
6.334932
6.334932
6.334932
6.334932
6.334932
6.334623
6.334623
6.334623
6.334623
6.334623
6.280688
6.280688
6.280688
6.280688
6.280688
6.260965
6.260965
6.260965
6.260965
6.260965
6.261196
6.261196
6.261196
6.261196
6.261196
6.281339
6.281339
6.281339
6.281339
6.281339
6.33511
6.33511
6.33511
6.33511
6.33511
6.33514
6.33514
6.33514
6.33514
6.33514
6.281515
6.281515
6.281515
6.281515
6.281515
6.261602
6.261602
6.261602
6.261602
6.261602
6.261709
6.261709
6.261709
6.261709
6.261709
6.281719
6.281719
6.281719
6.281719
6.281719
6.335456
6.335456
6.335456
6.335456
6.335456
6.335482
6.335482
6.335482
6.335482
6.335482
6.281831
6.281831
6.281831
6.281831
6.281831
6.261847
6.261847
6.261847
6.261847
6.261847
6.261842
6.261842
6.261842
6.261842
6.261842
6.281819
6.281819
6.281819
6.281819
6.281819
6.335475
6.335475
6.335475
6.335475
6.335475
6.335465
6.335465
6.335465
6.335465
6.335465
6.281688
6.281688
6.281688
6.281688
6.281688
6.261672
6.261672
6.261672
6.261672
6.261672
6.261599
6.261599
6.261599
6.261599
6.261599
6.281501
6.281501
6.281501
6.281501
6.281501
6.335142
6.335142
6.335142
6.335142
6.335142
6.335111
6.335111
6.335111
6.335111
6.335111
6.28135
6.28135
6.28135
6.28135
6.28135
6.261212
6.261212
6.261212
6.261212
6.261212
6.260957
6.260957
6.260957
6.260957
6.260957
6.280664
6.280664
6.280664
6.280664
6.280664
6.334595
6.334595
6.334595
6.334595
6.334595
6.33492
6.33492
6.33492
6.33492
6.33492
6.28145
6.28145
6.28145
6.28145
6.28145
6.261967
6.261967
6.261967
6.261967
6.261967
6.265366
6.265366
6.265366
6.265366
6.265366
6.298974
6.298974
6.298974
6.298974
6.298974
6.395342
6.395342
6.395342
6.395342
6.395342
6.448368
6.448368
6.448368
6.448368
6.448368
6.460576
6.460576
6.460576
6.460576
6.460576
6.404964
6.404964
6.404964
6.404964
6.404964
6.303669
6.303669
6.303669
6.303669
6.303669
6.267466
6.267466
6.267466
6.267466
6.267466
6.263264
6.263264
6.263264
6.263264
6.263264
6.283421
6.283421
6.283421
6.283421
6.283421
6.338696
6.338696
6.338696
6.338696
6.338696
6.338397
6.338397
6.338397
6.338397
6.338397
6.28263
6.28263
6.28263
6.28263
6.28263
6.261748
6.261748
6.261748
6.261748
6.261748
6.261916
6.261916
6.261916
6.261916
6.261916
6.283037
6.283037
6.283037
6.283037
6.283037
6.338608
6.338608
6.338608
6.338608
6.338608
6.338719
6.338719
6.338719
6.338719
6.338719
6.283356
6.283356
6.283356
6.283356
6.283356
6.262324
6.262324
6.262324
6.262324
6.262324
6.262356
6.262356
6.262356
6.262356
6.262356
6.283405
6.283405
6.283405
6.283405
6.283405
6.338938
6.338938
6.338938
6.338938
6.338938
6.338956
6.338956
6.338956
6.338956
6.338956
6.283454
6.283454
6.283454
6.283454
6.283454
6.262442
6.262442
6.262442
6.262442
6.262442
6.262437
6.262437
6.262437
6.262437
6.262437
6.28344
6.28344
6.28344
6.28344
6.28344
6.338948
6.338948
6.338948
6.338948
6.338948
6.338945
6.338945
6.338945
6.338945
6.338945
6.283412
6.283412
6.283412
6.283412
6.283412
6.262355
6.262355
6.262355
6.262355
6.262355
6.262318
6.262318
6.262318
6.262318
6.262318
6.283343
6.283343
6.283343
6.283343
6.283343
6.338719
6.338719
6.338719
6.338719
6.338719
6.338631
6.338631
6.338631
6.338631
6.338631
6.283061
6.283061
6.283061
6.283061
6.283061
6.261931
6.261931
6.261931
6.261931
6.261931
6.261745
6.261745
6.261745
6.261745
6.261745
6.282612
6.282612
6.282612
6.282612
6.282612
6.338375
6.338375
6.338375
6.338375
6.338375
6.338689
6.338689
6.338689
6.338689
6.338689
6.283423
6.283423
6.283423
6.283423
6.283423
6.26325
6.26325
6.26325
6.26325
6.26325
6.26742
6.26742
6.26742
6.26742
6.26742
6.303582
6.303582
6.303582
6.303582
6.303582
6.404807
6.404807
6.404807
6.404807
6.404807
6.460395
6.460395
6.460395
6.460395
6.460395
6.470666
6.470666
6.470666
6.470666
6.470666
6.412888
6.412888
6.412888
6.412888
6.412888
6.307605
6.307605
6.307605
6.307605
6.307605
6.269354
6.269354
6.269354
6.269354
6.269354
6.264467
6.264467
6.264467
6.264467
6.264467
6.285049
6.285049
6.285049
6.285049
6.285049
6.341582
6.341582
6.341582
6.341582
6.341582
6.341298
6.341298
6.341298
6.341298
6.341298
6.284264
6.284264
6.284264
6.284264
6.284264
6.262496
6.262496
6.262496
6.262496
6.262496
6.262605
6.262605
6.262605
6.262605
6.262605
6.284483
6.284483
6.284483
6.284483
6.284483
6.341385
6.341385
6.341385
6.341385
6.341385
6.341563
6.341563
6.341563
6.341563
6.341563
6.284893
6.284893
6.284893
6.284893
6.284893
6.26305
6.26305
6.26305
6.26305
6.26305
6.263046
6.263046
6.263046
6.263046
6.263046
6.28488
6.28488
6.28488
6.28488
6.28488
6.341828
6.341828
6.341828
6.341828
6.341828
6.341874
6.341874
6.341874
6.341874
6.341874
6.285041
6.285041
6.285041
6.285041
6.285041
6.263214
6.263214
6.263214
6.263214
6.263214
6.263209
6.263209
6.263209
6.263209
6.263209
6.285028
6.285028
6.285028
6.285028
6.285028
6.341866
6.341866
6.341866
6.341866
6.341866
6.341841
6.341841
6.341841
6.341841
6.341841
6.28494
6.28494
6.28494
6.28494
6.28494
6.263097
6.263097
6.263097
6.263097
6.263097
6.263043
6.263043
6.263043
6.263043
6.263043
6.284876
6.284876
6.284876
6.284876
6.284876
6.341567
6.341567
6.341567
6.341567
6.341567
6.341447
6.341447
6.341447
6.341447
6.341447
6.284534
6.284534
6.284534
6.284534
6.284534
6.262623
6.262623
6.262623
6.262623
6.262623
6.262497
6.262497
6.262497
6.262497
6.262497
6.284253
6.284253
6.284253
6.284253
6.284253
6.341286
6.341286
6.341286
6.341286
6.341286
6.341584
6.341584
6.341584
6.341584
6.341584
6.285056
6.285056
6.285056
6.285056
6.285056
6.264457
6.264457
6.264457
6.264457
6.264457
6.269313
6.269313
6.269313
6.269313
6.269313
6.307509
6.307509
6.307509
6.307509
6.307509
6.412729
6.412729
6.412729
6.412729
6.412729
6.470518
6.470518
6.470518
6.470518
6.470518
6.479198
6.479198
6.479198
6.479198
6.479198
6.419642
6.419642
6.419642
6.419642
6.419642
6.311152
6.311152
6.311152
6.311152
6.311152
6.271235
6.271235
6.271235
6.271235
6.271235
6.265783
6.265783
6.265783
6.265783
6.265783
6.286652
6.286652
6.286652
6.286652
6.286652
6.34407
6.34407
6.34407
6.34407
6.34407
6.34384
6.34384
6.34384
6.34384
6.34384
6.285822
6.285822
6.285822
6.285822
6.285822
6.263379
6.263379
6.263379
6.263379
6.263379
6.263421
6.263421
6.263421
6.263421
6.263421
6.285871
6.285871
6.285871
6.285871
6.285871
6.343743
6.343743
6.343743
6.343743
6.343743
6.343942
6.343942
6.343942
6.343942
6.343942
6.286206
6.286206
6.286206
6.286206
6.286206
6.263743
6.263743
6.263743
6.263743
6.263743
6.263713
6.263713
6.263713
6.263713
6.263713
6.286094
6.286094
6.286094
6.286094
6.286094
6.343864
6.343864
6.343864
6.343864
6.343864
6.344086
6.344086
6.344086
6.344086
6.344086
6.286446
6.286446
6.286446
6.286446
6.286446
6.263937
6.263937
6.263937
6.263937
6.263937
6.263932
6.263932
6.263932
6.263932
6.263932
6.286433
6.286433
6.286433
6.286433
6.286433
6.344076
6.344076
6.344076
6.344076
6.344076
6.34385
6.34385
6.34385
6.34385
6.34385
6.286097
6.286097
6.286097
6.286097
6.286097
6.26371
6.26371
6.26371
6.26371
6.26371
6.263718
6.263718
6.263718
6.263718
6.263718
6.286186
6.286186
6.286186
6.286186
6.286186
6.34388
6.34388
6.34388
6.34388
6.34388
6.343711
6.343711
6.343711
6.343711
6.343711
6.285854
6.285854
6.285854
6.285854
6.285854
6.263394
6.263394
6.263394
6.263394
6.263394
6.263396
6.263396
6.263396
6.263396
6.263396
6.285833
6.285833
6.285833
6.285833
6.285833
6.343874
6.343874
6.343874
6.343874
6.343874
6.344133
6.344133
6.344133
6.344133
6.344133
6.286698
6.286698
6.286698
6.286698
6.286698
6.265852
6.265852
6.265852
6.265852
6.265852
6.271326
6.271326
6.271326
6.271326
6.271326
6.311223
6.311223
6.311223
6.311223
6.311223
6.419725
6.419725
6.419725
6.419725
6.419725
6.479304
6.479304
6.479304
6.479304
6.479304
6.486742
6.486742
6.486742
6.486742
6.486742
6.425692
6.425692
6.425692
6.425692
6.425692
6.314501
6.314501
6.314501
6.314501
6.314501
6.273181
6.273181
6.273181
6.273181
6.273181
6.267147
6.267147
6.267147
6.267147
6.267147
6.288148
6.288148
6.288148
6.288148
6.288148
6.346153
6.346153
6.346153
6.346153
6.346153
6.346023
6.346023
6.346023
6.346023
6.346023
6.287285
6.287285
6.287285
6.287285
6.287285
6.264264
6.264264
6.264264
6.264264
6.264264
6.26417
6.26417
6.26417
6.26417
6.26417
6.287027
6.287027
6.287027
6.287027
6.287027
6.345535
6.345535
6.345535
6.345535
6.345535
6.345879
6.345879
6.345879
6.345879
6.345879
6.287538
6.287538
6.287538
6.287538
6.287538
6.264514
6.264514
6.264514
6.264514
6.264514
6.264451
6.264451
6.264451
6.264451
6.264451
6.287307
6.287307
6.287307
6.287307
6.287307
6.345869
6.345869
6.345869
6.345869
6.345869
6.346065
6.346065
6.346065
6.346065
6.346065
6.287635
6.287635
6.287635
6.287635
6.287635
6.264671
6.264671
6.264671
6.264671
6.264671
6.264666
6.264666
6.264666
6.264666
6.264666
6.287624
6.287624
6.287624
6.287624
6.287624
6.346057
6.346057
6.346057
6.346057
6.346057
6.345893
6.345893
6.345893
6.345893
6.345893
6.287337
6.287337
6.287337
6.287337
6.287337
6.264473
6.264473
6.264473
6.264473
6.264473
6.264518
6.264518
6.264518
6.264518
6.264518
6.287513
6.287513
6.287513
6.287513
6.287513
6.345909
6.345909
6.345909
6.345909
6.345909
6.345591
6.345591
6.345591
6.345591
6.345591
6.28708
6.28708
6.28708
6.28708
6.28708
6.264207
6.264207
6.264207
6.264207
6.264207
6.264231
6.264231
6.264231
6.264231
6.264231
6.287236
6.287236
6.287236
6.287236
6.287236
6.345977
6.345977
6.345977
6.345977
6.345977
6.346131
6.346131
6.346131
6.346131
6.346131
6.288135
6.288135
6.288135
6.288135
6.288135
6.267086
6.267086
6.267086
6.267086
6.267086
6.273057
6.273057
6.273057
6.273057
6.273057
6.314331
6.314331
6.314331
6.314331
6.314331
6.425441
6.425441
6.425441
6.425441
6.425441
6.486472
6.486472
6.486472
6.486472
6.486472
6.492874
6.492874
6.492874
6.492874
6.492874
6.430658
6.430658
6.430658
6.430658
6.430658
6.317382
6.317382
6.317382
6.317382
6.317382
6.274848
6.274848
6.274848
6.274848
6.274848
6.268301
6.268301
6.268301
6.268301
6.268301
6.289404
6.289404
6.289404
6.289404
6.289404
6.347764
6.347764
6.347764
6.347764
6.347764
6.34773
6.34773
6.34773
6.34773
6.34773
6.288517
6.288517
6.288517
6.288517
6.288517
6.265032
6.265032
6.265032
6.265032
6.265032
6.264912
6.264912
6.264912
6.264912
6.264912
6.288081
6.288081
6.288081
6.288081
6.288081
6.347059
6.347059
6.347059
6.347059
6.347059
6.347571
6.347571
6.347571
6.347571
6.347571
6.288815
6.288815
6.288815
6.288815
6.288815
6.265377
6.265377
6.265377
6.265377
6.265377
6.265318
6.265318
6.265318
6.265318
6.265318
6.288598
6.288598
6.288598
6.288598
6.288598
6.347795
6.347795
6.347795
6.347795
6.347795
6.34788
6.34788
6.34788
6.34788
6.34788
6.288736
6.288736
6.288736
6.288736
6.288736
6.26543
6.26543
6.26543
6.26543
6.26543
6.265426
6.265426
6.265426
6.265426
6.265426
6.288726
6.288726
6.288726
6.288726
6.288726
6.347878
6.347878
6.347878
6.347878
6.347878
6.347802
6.347802
6.347802
6.347802
6.347802
6.288565
6.288565
6.288565
6.288565
6.288565
6.265282
6.265282
6.265282
6.265282
6.265282
6.265368
6.265368
6.265368
6.265368
6.265368
6.288794
6.288794
6.288794
6.288794
6.288794
6.34757
6.34757
6.34757
6.34757
6.34757
6.347067
6.347067
6.347067
6.347067
6.347067
6.288092
6.288092
6.288092
6.288092
6.288092
6.264925
6.264925
6.264925
6.264925
6.264925
6.265015
6.265015
6.265015
6.265015
6.265015
6.288481
6.288481
6.288481
6.288481
6.288481
6.347706
6.347706
6.347706
6.347706
6.347706
6.347773
6.347773
6.347773
6.347773
6.347773
6.289412
6.289412
6.289412
6.289412
6.289412
6.268286
6.268286
6.268286
6.268286
6.268286
6.274795
6.274795
6.274795
6.274795
6.274795
6.317291
6.317291
6.317291
6.317291
6.317291
6.430497
6.430497
6.430497
6.430497
6.430497
6.492675
6.492675
6.492675
6.492675
6.492675
6.498287
6.498287
6.498287
6.498287
6.498287
6.435146
6.435146
6.435146
6.435146
6.435146
6.320165
6.320165
6.320165
6.320165
6.320165
6.276609
6.276609
6.276609
6.276609
6.276609
6.269601
6.269601
6.269601
6.269601
6.269601
6.290719
6.290719
6.290719
6.290719
6.290719
6.349327
6.349327
6.349327
6.349327
6.349327
6.349434
6.349434
6.349434
6.349434
6.349434
6.289847
6.289847
6.289847
6.289847
6.289847
6.265961
6.265961
6.265961
6.265961
6.265961
6.265774
6.265774
6.265774
6.265774
6.265774
6.289191
6.289191
6.289191
6.289191
6.289191
6.348605
6.348605
6.348605
6.348605
6.348605
6.34914
6.34914
6.34914
6.34914
6.34914
6.289926
6.289926
6.289926
6.289926
6.289926
6.266205
6.266205
6.266205
6.266205
6.266205
6.266096
6.266096
6.266096
6.266096
6.266096
6.289637
6.289637
6.289637
6.289637
6.289637
6.349336
6.349336
6.349336
6.349336
6.349336
6.349426
6.349426
6.349426
6.349426
6.349426
6.289801
6.289801
6.289801
6.289801
6.289801
6.266169
6.266169
6.266169
6.266169
6.266169
6.266164
6.266164
6.266164
6.266164
6.266164
6.28979
6.28979
6.28979
6.28979
6.28979
6.34942
6.34942
6.34942
6.34942
6.34942
6.349343
6.349343
6.349343
6.349343
6.349343
6.28964
6.28964
6.28964
6.28964
6.28964
6.266091
6.266091
6.266091
6.266091
6.266091
6.266196
6.266196
6.266196
6.266196
6.266196
6.289911
6.289911
6.289911
6.289911
6.289911
6.349136
6.349136
6.349136
6.349136
6.349136
6.348621
6.348621
6.348621
6.348621
6.348621
6.289211
6.289211
6.289211
6.289211
6.289211
6.265785
6.265785
6.265785
6.265785
6.265785
6.26595
6.26595
6.26595
6.26595
6.26595
6.289821
6.289821
6.289821
6.289821
6.289821
6.349413
6.349413
6.349413
6.349413
6.349413
6.349325
6.349325
6.349325
6.349325
6.349325
6.290723
6.290723
6.290723
6.290723
6.290723
6.269587
6.269587
6.269587
6.269587
6.269587
6.276557
6.276557
6.276557
6.276557
6.276557
6.320054
6.320054
6.320054
6.320054
6.320054
6.43497
6.43497
6.43497
6.43497
6.43497
6.498097
6.498097
6.498097
6.498097
6.498097
6.503135
6.503135
6.503135
6.503135
6.503135
6.439262
6.439262
6.439262
6.439262
6.439262
6.322842
6.322842
6.322842
6.322842
6.322842
6.278337
6.278337
6.278337
6.278337
6.278337
6.270882
6.270882
6.270882
6.270882
6.270882
6.291961
6.291961
6.291961
6.291961
6.291961
6.350748
6.350748
6.350748
6.350748
6.350748
6.350944
6.350944
6.350944
6.350944
6.350944
6.291104
6.291104
6.291104
6.291104
6.291104
6.266876
6.266876
6.266876
6.266876
6.266876
6.266617
6.266617
6.266617
6.266617
6.266617
6.290265
6.290265
6.290265
6.290265
6.290265
6.350137
6.350137
6.350137
6.350137
6.350137
6.350675
6.350675
6.350675
6.350675
6.350675
6.291074
6.291074
6.291074
6.291074
6.291074
6.267085
6.267085
6.267085
6.267085
6.267085
6.266954
6.266954
6.266954
6.266954
6.266954
6.29075
6.29075
6.29075
6.29075
6.29075
6.350891
6.350891
6.350891
6.350891
6.350891
6.351053
6.351053
6.351053
6.351053
6.351053
6.291081
6.291081
6.291081
6.291081
6.291081
6.267127
6.267127
6.267127
6.267127
6.267127
6.267122
6.267122
6.267122
6.267122
6.267122
6.29107
6.29107
6.29107
6.29107
6.29107
6.351046
6.351046
6.351046
6.351046
6.351046
6.350903
6.350903
6.350903
6.350903
6.350903
6.290802
6.290802
6.290802
6.290802
6.290802
6.266997
6.266997
6.266997
6.266997
6.266997
6.267078
6.267078
6.267078
6.267078
6.267078
6.291061
6.291061
6.291061
6.291061
6.291061
6.350671
6.350671
6.350671
6.350671
6.350671
6.350171
6.350171
6.350171
6.350171
6.350171
6.290303
6.290303
6.290303
6.290303
6.290303
6.266628
6.266628
6.266628
6.266628
6.266628
6.266866
6.266866
6.266866
6.266866
6.266866
6.291079
6.291079
6.291079
6.291079
6.291079
6.350931
6.350931
6.350931
6.350931
6.350931
6.35076
6.35076
6.35076
6.35076
6.35076
6.291968
6.291968
6.291968
6.291968
6.291968
6.270867
6.270867
6.270867
6.270867
6.270867
6.278294
6.278294
6.278294
6.278294
6.278294
6.322741
6.322741
6.322741
6.322741
6.322741
6.439096
6.439096
6.439096
6.439096
6.439096
6.502976
6.502976
6.502976
6.502976
6.502976
6.507571
6.507571
6.507571
6.507571
6.507571
6.443009
6.443009
6.443009
6.443009
6.443009
6.325287
6.325287
6.325287
6.325287
6.325287
6.280108
6.280108
6.280108
6.280108
6.280108
6.272308
6.272308
6.272308
6.272308
6.272308
6.29331
6.29331
6.29331
6.29331
6.29331
6.352223
6.352223
6.352223
6.352223
6.352223
6.352589
6.352589
6.352589
6.352589
6.352589
6.292504
6.292504
6.292504
6.292504
6.292504
6.268012
6.268012
6.268012
6.268012
6.268012
6.26767
6.26767
6.26767
6.26767
6.26767
6.291538
6.291538
6.291538
6.291538
6.291538
6.351868
6.351868
6.351868
6.351868
6.351868
6.352297
6.352297
6.352297
6.352297
6.352297
6.292182
6.292182
6.292182
6.292182
6.292182
6.268009
6.268009
6.268009
6.268009
6.268009
6.267888
6.267888
6.267888
6.267888
6.267888
6.291877
6.291877
6.291877
6.291877
6.291877
6.352277
6.352277
6.352277
6.352277
6.352277
6.352495
6.352495
6.352495
6.352495
6.352495
6.292197
6.292197
6.292197
6.292197
6.292197
6.268037
6.268037
6.268037
6.268037
6.268037
6.268032
6.268032
6.268032
6.268032
6.268032
6.292186
6.292186
6.292186
6.292186
6.292186
6.352485
6.352485
6.352485
6.352485
6.352485
6.352261
6.352261
6.352261
6.352261
6.352261
6.291879
6.291879
6.291879
6.291879
6.291879
6.267883
6.267883
6.267883
6.267883
6.267883
6.267986
6.267986
6.267986
6.267986
6.267986
6.292167
6.292167
6.292167
6.292167
6.292167
6.352238
6.352238
6.352238
6.352238
6.352238
6.351828
6.351828
6.351828
6.351828
6.351828
6.291519
6.291519
6.291519
6.291519
6.291519
6.267645
6.267645
6.267645
6.267645
6.267645
6.268031
6.268031
6.268031
6.268031
6.268031
6.292517
6.292517
6.292517
6.292517
6.292517
6.352629
6.352629
6.352629
6.352629
6.352629
6.352288
6.352288
6.352288
6.352288
6.352288
6.293358