# vtk DataFile Version 2.0
airSides
ASCII
DATASET POLYDATA
POINTS 0 float

POLYGONS 0 0

CELL_DATA 0
FIELD attributes 4
patchID 1 0 float

T 1 0 float

k 1 0 float

cellToRegion 1 0 float

POINT_DATA  0
FIELD attributes 3
T 1 0 float

k 1 0 float

cellToRegion 1 0 float

