# vtk DataFile Version 2.0
air_to_electrolyte
ASCII
DATASET POLYDATA
POINTS 1035 float
0.0034137 0 0 0.0034137 0.0005 0 0.0034137 0.0005 0.001 0.0034137 0
0.001 0.0034137 0.001 0 0.0034137 0.001 0.001 0.0034137 0.0015 0
0.0034137 0.0015 0.001 0.0034137 0.002 0 0.0034137 0.002 0.001 0.0034137
0.0025 0 0.0034137 0.0025 0.001 0.0034137 0.003 0 0.0034137 0.003
0.001 0.0034137 0.0035 0 0.0034137 0.0035 0.001 0.0034137 0.004 0
0.0034137 0.004 0.001 0.0034137 0.0045 0 0.0034137 0.0045 0.001 0.0034137
0.005 0 0.0034137 0.005 0.001 0.0034137 0.0055 0 0.0034137 0.0055
0.001 0.0034137 0.006 0 0.0034137 0.006 0.001 0.0034137 0.0065 0
0.0034137 0.0065 0.001 0.0034137 0.007 0 0.0034137 0.007 0.001 0.0034137
0.0075 0 0.0034137 0.0075 0.001 0.0034137 0.008 0 0.0034137 0.008
0.001 0.0034137 0.0085 0 0.0034137 0.0085 0.001 0.0034137 0.009 0
0.0034137 0.009 0.001 0.0034137 0.0095 0 0.0034137 0.0095 0.001 0.0034137
0.01 0 0.0034137 0.01 0.001 0.0034137 0.0105 0 0.0034137 0.0105
0.001 0.0034137 0.011 0 0.0034137 0.011 0.001 0.0034137 0.0115 0
0.0034137 0.0115 0.001 0.0034137 0.012 0 0.0034137 0.012 0.001 0.0034137
0.0125 0 0.0034137 0.0125 0.001 0.0034137 0.013 0 0.0034137 0.013
0.001 0.0034137 0.0135 0 0.0034137 0.0135 0.001 0.0034137 0.014 0
0.0034137 0.014 0.001 0.0034137 0.0145 0 0.0034137 0.0145 0.001 0.0034137
0.015 0 0.0034137 0.015 0.001 0.0034137 0.0155 0 0.0034137 0.0155
0.001 0.0034137 0.016 0 0.0034137 0.016 0.001 0.0034137 0.0165 0
0.0034137 0.0165 0.001 0.0034137 0.017 0 0.0034137 0.017 0.001 0.0034137
0.0175 0 0.0034137 0.0175 0.001 0.0034137 0.018 0 0.0034137 0.018
0.001 0.0034137 0.0185 0 0.0034137 0.0185 0.001 0.0034137 0.019 0
0.0034137 0.019 0.001 0.0034137 0.0195 0 0.0034137 0.0195 0.001 0.0034137
0.02 0 0.0034137 0.02 0.001 0.0034137 0.0205 0 0.0034137 0.0205
0.001 0.0034137 0.021 0 0.0034137 0.021 0.001 0.0034137 0.0215 0
0.0034137 0.0215 0.001 0.0034137 0.022 0 0.0034137 0.022 0.001 0.0034137
0.0005 0.002 0.0034137 0 0.002 0.0034137 0.001 0.002 0.0034137 0.0015
0.002 0.0034137 0.002 0.002 0.0034137 0.0025 0.002 0.0034137 0.003 0.002
0.0034137 0.0035 0.002 0.0034137 0.004 0.002 0.0034137 0.0045 0.002 0.0034137
0.005 0.002 0.0034137 0.0055 0.002 0.0034137 0.006 0.002 0.0034137 0.0065
0.002 0.0034137 0.007 0.002 0.0034137 0.0075 0.002 0.0034137 0.008 0.002
0.0034137 0.0085 0.002 0.0034137 0.009 0.002 0.0034137 0.0095 0.002 0.0034137
0.01 0.002 0.0034137 0.0105 0.002 0.0034137 0.011 0.002 0.0034137 0.0115
0.002 0.0034137 0.012 0.002 0.0034137 0.0125 0.002 0.0034137 0.013 0.002
0.0034137 0.0135 0.002 0.0034137 0.014 0.002 0.0034137 0.0145 0.002 0.0034137
0.015 0.002 0.0034137 0.0155 0.002 0.0034137 0.016 0.002 0.0034137 0.0165
0.002 0.0034137 0.017 0.002 0.0034137 0.0175 0.002 0.0034137 0.018 0.002
0.0034137 0.0185 0.002 0.0034137 0.019 0.002 0.0034137 0.0195 0.002 0.0034137
0.02 0.002 0.0034137 0.0205 0.002 0.0034137 0.021 0.002 0.0034137 0.0215
0.002 0.0034137 0.022 0.002 0.0034137 0.0005 0.003 0.0034137 0 0.003
0.0034137 0.001 0.003 0.0034137 0.0015 0.003 0.0034137 0.002 0.003 0.0034137
0.0025 0.003 0.0034137 0.003 0.003 0.0034137 0.0035 0.003 0.0034137 0.004
0.003 0.0034137 0.0045 0.003 0.0034137 0.005 0.003 0.0034137 0.0055 0.003
0.0034137 0.006 0.003 0.0034137 0.0065 0.003 0.0034137 0.007 0.003 0.0034137
0.0075 0.003 0.0034137 0.008 0.003 0.0034137 0.0085 0.003 0.0034137 0.009
0.003 0.0034137 0.0095 0.003 0.0034137 0.01 0.003 0.0034137 0.0105 0.003
0.0034137 0.011 0.003 0.0034137 0.0115 0.003 0.0034137 0.012 0.003 0.0034137
0.0125 0.003 0.0034137 0.013 0.003 0.0034137 0.0135 0.003 0.0034137 0.014
0.003 0.0034137 0.0145 0.003 0.0034137 0.015 0.003 0.0034137 0.0155 0.003
0.0034137 0.016 0.003 0.0034137 0.0165 0.003 0.0034137 0.017 0.003 0.0034137
0.0175 0.003 0.0034137 0.018 0.003 0.0034137 0.0185 0.003 0.0034137 0.019
0.003 0.0034137 0.0195 0.003 0.0034137 0.02 0.003 0.0034137 0.0205 0.003
0.0034137 0.021 0.003 0.0034137 0.0215 0.003 0.0034137 0.022 0.003 0.0034137
0.0005 0.004 0.0034137 0 0.004 0.0034137 0.001 0.004 0.0034137 0.0015
0.004 0.0034137 0.002 0.004 0.0034137 0.0025 0.004 0.0034137 0.003 0.004
0.0034137 0.0035 0.004 0.0034137 0.004 0.004 0.0034137 0.0045 0.004 0.0034137
0.005 0.004 0.0034137 0.0055 0.004 0.0034137 0.006 0.004 0.0034137 0.0065
0.004 0.0034137 0.007 0.004 0.0034137 0.0075 0.004 0.0034137 0.008 0.004
0.0034137 0.0085 0.004 0.0034137 0.009 0.004 0.0034137 0.0095 0.004 0.0034137
0.01 0.004 0.0034137 0.0105 0.004 0.0034137 0.011 0.004 0.0034137 0.0115
0.004 0.0034137 0.012 0.004 0.0034137 0.0125 0.004 0.0034137 0.013 0.004
0.0034137 0.0135 0.004 0.0034137 0.014 0.004 0.0034137 0.0145 0.004 0.0034137
0.015 0.004 0.0034137 0.0155 0.004 0.0034137 0.016 0.004 0.0034137 0.0165
0.004 0.0034137 0.017 0.004 0.0034137 0.0175 0.004 0.0034137 0.018 0.004
0.0034137 0.0185 0.004 0.0034137 0.019 0.004 0.0034137 0.0195 0.004 0.0034137
0.02 0.004 0.0034137 0.0205 0.004 0.0034137 0.021 0.004 0.0034137 0.0215
0.004 0.0034137 0.022 0.004 0.0034137 0.0005 0.005 0.0034137 0 0.005
0.0034137 0.001 0.005 0.0034137 0.0015 0.005 0.0034137 0.002 0.005 0.0034137
0.0025 0.005 0.0034137 0.003 0.005 0.0034137 0.0035 0.005 0.0034137 0.004
0.005 0.0034137 0.0045 0.005 0.0034137 0.005 0.005 0.0034137 0.0055 0.005
0.0034137 0.006 0.005 0.0034137 0.0065 0.005 0.0034137 0.007 0.005 0.0034137
0.0075 0.005 0.0034137 0.008 0.005 0.0034137 0.0085 0.005 0.0034137 0.009
0.005 0.0034137 0.0095 0.005 0.0034137 0.01 0.005 0.0034137 0.0105 0.005
0.0034137 0.011 0.005 0.0034137 0.0115 0.005 0.0034137 0.012 0.005 0.0034137
0.0125 0.005 0.0034137 0.013 0.005 0.0034137 0.0135 0.005 0.0034137 0.014
0.005 0.0034137 0.0145 0.005 0.0034137 0.015 0.005 0.0034137 0.0155 0.005
0.0034137 0.016 0.005 0.0034137 0.0165 0.005 0.0034137 0.017 0.005 0.0034137
0.0175 0.005 0.0034137 0.018 0.005 0.0034137 0.0185 0.005 0.0034137 0.019
0.005 0.0034137 0.0195 0.005 0.0034137 0.02 0.005 0.0034137 0.0205 0.005
0.0034137 0.021 0.005 0.0034137 0.0215 0.005 0.0034137 0.022 0.005 0.0034137
0.0005 0.006 0.0034137 0 0.006 0.0034137 0.001 0.006 0.0034137 0.0015
0.006 0.0034137 0.002 0.006 0.0034137 0.0025 0.006 0.0034137 0.003 0.006
0.0034137 0.0035 0.006 0.0034137 0.004 0.006 0.0034137 0.0045 0.006 0.0034137
0.005 0.006 0.0034137 0.0055 0.006 0.0034137 0.006 0.006 0.0034137 0.0065
0.006 0.0034137 0.007 0.006 0.0034137 0.0075 0.006 0.0034137 0.008 0.006
0.0034137 0.0085 0.006 0.0034137 0.009 0.006 0.0034137 0.0095 0.006 0.0034137
0.01 0.006 0.0034137 0.0105 0.006 0.0034137 0.011 0.006 0.0034137 0.0115
0.006 0.0034137 0.012 0.006 0.0034137 0.0125 0.006 0.0034137 0.013 0.006
0.0034137 0.0135 0.006 0.0034137 0.014 0.006 0.0034137 0.0145 0.006 0.0034137
0.015 0.006 0.0034137 0.0155 0.006 0.0034137 0.016 0.006 0.0034137 0.0165
0.006 0.0034137 0.017 0.006 0.0034137 0.0175 0.006 0.0034137 0.018 0.006
0.0034137 0.0185 0.006 0.0034137 0.019 0.006 0.0034137 0.0195 0.006 0.0034137
0.02 0.006 0.0034137 0.0205 0.006 0.0034137 0.021 0.006 0.0034137 0.0215
0.006 0.0034137 0.022 0.006 0.0034137 0.0005 0.007 0.0034137 0 0.007
0.0034137 0.001 0.007 0.0034137 0.0015 0.007 0.0034137 0.002 0.007 0.0034137
0.0025 0.007 0.0034137 0.003 0.007 0.0034137 0.0035 0.007 0.0034137 0.004
0.007 0.0034137 0.0045 0.007 0.0034137 0.005 0.007 0.0034137 0.0055 0.007
0.0034137 0.006 0.007 0.0034137 0.0065 0.007 0.0034137 0.007 0.007 0.0034137
0.0075 0.007 0.0034137 0.008 0.007 0.0034137 0.0085 0.007 0.0034137 0.009
0.007 0.0034137 0.0095 0.007 0.0034137 0.01 0.007 0.0034137 0.0105 0.007
0.0034137 0.011 0.007 0.0034137 0.0115 0.007 0.0034137 0.012 0.007 0.0034137
0.0125 0.007 0.0034137 0.013 0.007 0.0034137 0.0135 0.007 0.0034137 0.014
0.007 0.0034137 0.0145 0.007 0.0034137 0.015 0.007 0.0034137 0.0155 0.007
0.0034137 0.016 0.007 0.0034137 0.0165 0.007 0.0034137 0.017 0.007 0.0034137
0.0175 0.007 0.0034137 0.018 0.007 0.0034137 0.0185 0.007 0.0034137 0.019
0.007 0.0034137 0.0195 0.007 0.0034137 0.02 0.007 0.0034137 0.0205 0.007
0.0034137 0.021 0.007 0.0034137 0.0215 0.007 0.0034137 0.022 0.007 0.0034137
0.0005 0.008 0.0034137 0 0.008 0.0034137 0.001 0.008 0.0034137 0.0015
0.008 0.0034137 0.002 0.008 0.0034137 0.0025 0.008 0.0034137 0.003 0.008
0.0034137 0.0035 0.008 0.0034137 0.004 0.008 0.0034137 0.0045 0.008 0.0034137
0.005 0.008 0.0034137 0.0055 0.008 0.0034137 0.006 0.008 0.0034137 0.0065
0.008 0.0034137 0.007 0.008 0.0034137 0.0075 0.008 0.0034137 0.008 0.008
0.0034137 0.0085 0.008 0.0034137 0.009 0.008 0.0034137 0.0095 0.008 0.0034137
0.01 0.008 0.0034137 0.0105 0.008 0.0034137 0.011 0.008 0.0034137 0.0115
0.008 0.0034137 0.012 0.008 0.0034137 0.0125 0.008 0.0034137 0.013 0.008
0.0034137 0.0135 0.008 0.0034137 0.014 0.008 0.0034137 0.0145 0.008 0.0034137
0.015 0.008 0.0034137 0.0155 0.008 0.0034137 0.016 0.008 0.0034137 0.0165
0.008 0.0034137 0.017 0.008 0.0034137 0.0175 0.008 0.0034137 0.018 0.008
0.0034137 0.0185 0.008 0.0034137 0.019 0.008 0.0034137 0.0195 0.008 0.0034137
0.02 0.008 0.0034137 0.0205 0.008 0.0034137 0.021 0.008 0.0034137 0.0215
0.008 0.0034137 0.022 0.008 0.0034137 0.0005 0.009 0.0034137 0 0.009
0.0034137 0.001 0.009 0.0034137 0.0015 0.009 0.0034137 0.002 0.009 0.0034137
0.0025 0.009 0.0034137 0.003 0.009 0.0034137 0.0035 0.009 0.0034137 0.004
0.009 0.0034137 0.0045 0.009 0.0034137 0.005 0.009 0.0034137 0.0055 0.009
0.0034137 0.006 0.009 0.0034137 0.0065 0.009 0.0034137 0.007 0.009 0.0034137
0.0075 0.009 0.0034137 0.008 0.009 0.0034137 0.0085 0.009 0.0034137 0.009
0.009 0.0034137 0.0095 0.009 0.0034137 0.01 0.009 0.0034137 0.0105 0.009
0.0034137 0.011 0.009 0.0034137 0.0115 0.009 0.0034137 0.012 0.009 0.0034137
0.0125 0.009 0.0034137 0.013 0.009 0.0034137 0.0135 0.009 0.0034137 0.014
0.009 0.0034137 0.0145 0.009 0.0034137 0.015 0.009 0.0034137 0.0155 0.009
0.0034137 0.016 0.009 0.0034137 0.0165 0.009 0.0034137 0.017 0.009 0.0034137
0.0175 0.009 0.0034137 0.018 0.009 0.0034137 0.0185 0.009 0.0034137 0.019
0.009 0.0034137 0.0195 0.009 0.0034137 0.02 0.009 0.0034137 0.0205 0.009
0.0034137 0.021 0.009 0.0034137 0.0215 0.009 0.0034137 0.022 0.009 0.0034137
[...]
CELL_DATA 968
FIELD attributes 16
patchID 1 968 float
5 5 5 5 5 5 5 5 5 5 5
5 5 5 5 5 5 5 5 5 5
5 5 5 5 5 5 5 5 5 5
5 5 5 5 5 5 5 5 5 5
5 5 5 5 5 5 5 5 5 5
5 5 5 5 5 5 5 5 5 5
5 5 5 5 5 5 5 5 5 5
5 5 5 5 5 5 5 5 5 5
5 5 5 5 5 5 5 5 5 5
5 5 5 5 5 5 5 5 5 5
5 5 5 5 5 5 5 5 5 5
5 5 5 5 5 5 5 5 5 5
5 5 5 5 5 5 5 5 5 5
5 5 5 5 5 5 5 5 5 5
5 5 5 5 5 5 5 5 5 5
5 5 5 5 5 5 5 5 5 5
5 5 5 5 5 5 5 5 5 5
5 5 5 5 5 5 5 5 5 5
5 5 5 5 5 5 5 5 5 5
5 5 5 5 5 5 5 5 5 5
5 5 5 5 5 5 5 5 5 5
5 5 5 5 5 5 5 5 5 5
5 5 5 5 5 5 5 5 5 5
5 5 5 5 5 5 5 5 5 5
5 5 5 5 5 5 5 5 5 5
5 5 5 5 5 5 5 5 5 5
5 5 5 5 5 5 5 5 5 5
5 5 5 5 5 5 5 5 5 5
5 5 5 5 5 5 5 5 5 5
5 5 5 5 5 5 5 5 5 5
5 5 5 5 5 5 5 5 5 5
5 5 5 5 5 5 5 5 5 5
5 5 5 5 5 5 5 5 5 5
5 5 5 5 5 5 5 5 5 5
5 5 5 5 5 5 5 5 5 5
5 5 5 5 5 5 5 5 5 5
5 5 5 5 5 5 5 5 5 5
5 5 5 5 5 5 5 5 5 5
5 5 5 5 5 5 5 5 5 5
5 5 5 5 5 5 5 5 5 5
5 5 5 5 5 5 5 5 5 5
5 5 5 5 5 5 5 5 5 5
5 5 5 5 5 5 5 5 5 5
5 5 5 5 5 5 5 5 5 5
5 5 5 5 5 5 5 5 5 5
5 5 5 5 5 5 5 5 5 5
5 5 5 5 5 5 5 5 5 5
5 5 5 5 5 5 5 5 5 5
5 5 5 5 5 5 5 5 5 5
5 5 5 5 5 5 5 5 5 5
5 5 5 5 5 5 5 5 5 5
5 5 5 5 5 5 5 5 5 5
5 5 5 5 5 5 5 5 5 5
5 5 5 5 5 5 5 5 5 5
5 5 5 5 5 5 5 5 5 5
5 5 5 5 5 5 5 5 5 5
5 5 5 5 5 5 5 5 5 5
5 5 5 5 5 5 5 5 5 5
5 5 5 5 5 5 5 5 5 5
5 5 5 5 5 5 5 5 5 5
5 5 5 5 5 5 5 5 5 5
5 5 5 5 5 5 5 5 5 5
5 5 5 5 5 5 5 5 5 5
5 5 5 5 5 5 5 5 5 5
5 5 5 5 5 5 5 5 5 5
5 5 5 5 5 5 5 5 5 5
5 5 5 5 5 5 5 5 5 5
5 5 5 5 5 5 5 5 5 5
5 5 5 5 5 5 5 5 5 5
5 5 5 5 5 5 5 5 5 5
5 5 5 5 5 5 5 5 5 5
5 5 5 5 5 5 5 5 5 5
5 5 5 5 5 5 5 5 5 5
5 5 5 5 5 5 5 5 5 5
5 5 5 5 5 5 5 5 5 5
5 5 5 5 5 5 5 5 5 5
5 5 5 5 5 5 5 5 5 5
5 5 5 5 5 5 5 5 5 5
5 5 5 5 5 5 5 5 5 5
5 5 5 5 5 5 5 5 5 5
5 5 5 5 5 5 5 5 5 5
5 5 5 5 5 5 5 5 5 5
5 5 5 5 5 5 5 5 5 5
5 5 5 5 5 5 5 5 5 5
5 5 5 5 5 5 5 5 5 5
5 5 5 5 5 5 5 5 5 5
5 5 5 5 5 5 5 5 5 5
5 5 5 5 5 5 5 5 5 5
5 5 5 5 5 5 5 5 5 5
5 5 5 5 5 5 5 5 5 5
5 5 5 5 5 5 5 5 5 5
5 5 5 5 5 5 5 5 5 5
5 5 5 5 5 5 5 5 5 5
5 5 5 5 5 5 5 5 5 5
5 5 5 5 5 5 5 5 5 5
5 5 5 5 5 5 5 5 5 5
5 5 5 5 5 5 5 
YH2Oair 1 968 float
0.152581 0.151771 0.150844 0.150656 0.150653 0.150783 0.15139 0.151371 0.150776 0.150649 0.150648
0.150777 0.151375 0.151371 0.150775 0.150647 0.150647 0.150775 0.151372 0.151371 0.150775
0.150647 0.150647 0.150775 0.151372 0.151373 0.150776 0.150648 0.150648 0.150776 0.151374
0.151377 0.150778 0.150649 0.150648 0.150775 0.151369 0.151389 0.150782 0.15065 0.150653
0.150839 0.151761 0.152567 0.152616 0.151862 0.150986 0.150771 0.150766 0.150924 0.151511
0.151494 0.150915 0.150762 0.150763 0.150919 0.151501 0.151498 0.150918 0.150763 0.150764
0.15092 0.151501 0.151501 0.150919 0.150764 0.150764 0.150919 0.151501 0.151501 0.150919
0.150763 0.150763 0.150918 0.151498 0.151502 0.150919 0.150763 0.150762 0.150915 0.151493
0.15151 0.150924 0.150765 0.150769 0.150984 0.151858 0.15261 0.152901 0.152174 0.151167
0.150891 0.150881 0.151075 0.151707 0.151692 0.151065 0.150875 0.150876 0.151069 0.151698
0.151694 0.151066 0.150874 0.150875 0.151067 0.151696 0.151695 0.151067 0.150875 0.150875
0.151067 0.151695 0.151696 0.151067 0.150875 0.150874 0.151066 0.151694 0.151698 0.15107
0.150876 0.150875 0.151065 0.151692 0.151706 0.151074 0.15088 0.15089 0.151165 0.15217
0.152896 0.153253 0.15254 0.151367 0.151013 0.150993 0.151226 0.151904 0.151896 0.151213
0.150984 0.150986 0.151219 0.151899 0.151897 0.151217 0.150985 0.150986 0.151218 0.1519
0.1519 0.151219 0.150987 0.150987 0.151219 0.1519 0.1519 0.15122 0.150987 0.150985
0.151217 0.151897 0.151899 0.15122 0.150986 0.150984 0.151213 0.151896 0.151904 0.151226
0.150993 0.151012 0.151365 0.152537 0.15325 0.153577 0.15284 0.151552 0.151131 0.1511
0.151359 0.152076 0.15207 0.151344 0.151085 0.151088 0.151351 0.152071 0.152069 0.151346
0.151086 0.151086 0.151348 0.152069 0.152068 0.151347 0.151086 0.151086 0.151347 0.152068
0.152068 0.151348 0.151086 0.151085 0.151346 0.152068 0.15207 0.15135 0.151087 0.151086
0.151344 0.152071 0.152077 0.15136 0.151101 0.151132 0.151553 0.152842 0.153579 0.153872
0.153104 0.151728 0.151246 0.1512 0.151477 0.152222 0.152216 0.151461 0.151179 0.15118
0.151466 0.152214 0.152213 0.151463 0.151178 0.151179 0.151463 0.152213 0.152213 0.151463
0.151179 0.151179 0.151463 0.152212 0.152213 0.151464 0.151179 0.151179 0.151463 0.152214
0.152215 0.151466 0.151181 0.151178 0.151461 0.152216 0.152221 0.151477 0.151198 0.151243
0.151725 0.1531 0.153867 0.154123 0.15332 0.15187 0.151345 0.151287 0.151575 0.152342
0.152337 0.151559 0.151261 0.151263 0.151563 0.152336 0.152335 0.151561 0.151262 0.151263
0.151563 0.152336 0.152337 0.151563 0.151264 0.151263 0.151563 0.152336 0.152337 0.151562
0.151262 0.151262 0.151561 0.152335 0.152336 0.151563 0.151263 0.151261 0.151558 0.152337
0.152342 0.151575 0.151286 0.151344 0.151869 0.153317 0.15412 0.154341 0.153507 0.151998
0.15144 0.15137 0.151665 0.152449 0.152443 0.151647 0.151338 0.15134 0.15165 0.15244
0.15244 0.151649 0.151339 0.151339 0.151649 0.152439 0.152439 0.151649 0.151339 0.151339
0.151649 0.152439 0.152439 0.151649 0.151339 0.151338 0.151649 0.15244 0.15244 0.151651
0.15134 0.151338 0.151647 0.152443 0.152449 0.151665 0.151369 0.151439 0.151996 0.153504
0.154338 0.154528 0.153666 0.152109 0.151525 0.151445 0.151743 0.152539 0.152533 0.151725
0.151408 0.151409 0.151726 0.15253 0.15253 0.151728 0.151409 0.151409 0.151727 0.152531
0.152531 0.151728 0.15141 0.15141 0.151728 0.152531 0.152531 0.151728 0.15141 0.151409
0.151727 0.15253 0.15253 0.151727 0.151409 0.151407 0.151725 0.152533 0.152539 0.151743
0.151445 0.151524 0.152107 0.153664 0.154526 0.15469 0.153806 0.15221 0.151605 0.151518
0.151817 0.152622 0.152616 0.151799 0.151475 0.151475 0.151799 0.152611 0.152612 0.151799
0.151475 0.151475 0.151798 0.15261 0.15261 0.151798 0.151475 0.151475 0.151798 0.15261
0.15261 0.151798 0.151475 0.151475 0.151799 0.152611 0.15261 0.151798 0.151475 0.151475
0.151799 0.152617 0.152622 0.151818 0.151519 0.151607 0.152211 0.153808 0.154692 0.154835
0.153933 0.152305 0.151683 0.151588 0.151886 0.152697 0.152691 0.151867 0.151538 0.151537
0.151864 0.152683 0.152684 0.151865 0.151537 0.151536 0.151863 0.152682 0.152683 0.151865
0.151537 0.151537 0.151865 0.152683 0.152683 0.151863 0.151537 0.151537 0.151865 0.152684
0.152684 0.151864 0.151538 0.151538 0.151866 0.15269 0.152696 0.151885 0.151586 0.151681
0.152302 0.153928 0.15483 0.154954 0.154039 0.152388 0.151753 0.15165 0.151948 0.152762
0.152757 0.151929 0.151596 0.151595 0.151924 0.152748 0.15275 0.151928 0.151596 0.151596
0.151926 0.15275 0.15275 0.151927 0.151597 0.151597 0.151927 0.15275 0.15275 0.151925
0.151595 0.151596 0.151927 0.152749 0.152748 0.151924 0.151595 0.151596 0.151928 0.152756
0.152762 0.151948 0.151649 0.151752 0.152387 0.154036 0.154951 0.155061 0.154135 0.152466
0.151821 0.151712 0.152008 0.152823 0.152819 0.151988 0.151653 0.151651 0.151981 0.152807
0.15281 0.151985 0.151652 0.151651 0.151982 0.152809 0.15281 0.151983 0.151652 0.151651
0.151983 0.15281 0.15281 0.151982 0.151651 0.151652 0.151985 0.15281 0.152807 0.151982
0.151651 0.151653 0.151988 0.152819 0.152823 0.152008 0.151712 0.15182 0.152464 0.154132
0.155058 0.155158 0.154225 0.152542 0.151886 0.151771 0.152065 0.15288 0.152876 0.152044
0.151707 0.151704 0.152035 0.152864 0.152867 0.152041 0.151706 0.151705 0.152038 0.152868
0.152869 0.15204 0.151706 0.151706 0.15204 0.152869 0.152868 0.152039 0.151706 0.151706
0.152041 0.152867 0.152864 0.152036 0.151704 0.151707 0.152044 0.152876 0.15288 0.152064
0.15177 0.151885 0.15254 0.154222 0.155156 0.155246 0.154306 0.15261 0.151948 0.151828
0.15212 0.152934 0.152932 0.152099 0.15176 0.151757 0.152088 0.152918 0.152922 0.152093
0.151758 0.151756 0.15209 0.15292 0.152922 0.152091 0.151757 0.151757 0.152091 0.152922
0.15292 0.15209 0.151756 0.151758 0.152093 0.152921 0.152917 0.152088 0.151756 0.15176
0.1521 0.152933 0.152935 0.15212 0.15183 0.151949 0.152611 0.154307 0.155248 0.155336
0.154391 0.152687 0.152013 0.151887 0.152175 0.152989 0.152988 0.152156 0.151814 0.151808
0.15214 0.152973 0.152976 0.152147 0.151809 0.151807 0.152142 0.152974 0.152975 0.152145
0.151808 0.151808 0.152145 0.152975 0.152974 0.152142 0.151808 0.151809 0.152147 0.152976
0.152973 0.152141 0.151808 0.151813 0.152155 0.152987 0.152988 0.152174 0.151885 0.152011
0.152683 0.154386 0.15533 0.155414 0.154466 0.152753 0.152072 0.15194 0.152226 0.153038
0.153039 0.152206 0.151862 0.151856 0.152189 0.153023 0.153027 0.152197 0.151859 0.151857
0.152192 0.153027 0.153028 0.152196 0.151859 0.151859 0.152195 0.153028 0.153027 0.152192
0.151857 0.151858 0.152196 0.153027 0.153023 0.152189 0.151856 0.151862 0.152206 0.153038
0.153037 0.152225 0.151939 0.152071 0.152751 0.154463 0.15541 0.155501 0.154556 0.15284
0.15214 0.151999 0.152283 0.153099 0.153097 0.152266 0.151916 0.151909 0.152245 0.153078
0.153081 0.152253 0.151911 0.151909 0.152247 0.15308 0.153081 0.152251 0.15191 0.15191
0.15225 0.153081 0.15308 0.152247 0.151909 0.151911 0.152253 0.153081 0.153078 0.152245
0.151909 0.151916 0.152265 0.153096 0.153099 0.152283 0.151998 0.152139 0.152838 0.154553
0.155498 0.155611 0.154673 0.152954 0.152218 0.152062 0.152348 0.153164 0.15316 0.152331
0.151972 0.151964 0.152308 0.153139 0.153142 0.152317 0.151967 0.151964 0.152311 0.153142
0.153143 0.152315 0.151967 0.151966 0.152315 0.153143 0.153142 0.152312 0.151965 0.151967
0.152316 0.153142 0.153139 0.152308 0.151964 0.151972 0.152331 0.15316 0.153164 0.152348
0.152061 0.152217 0.152952 0.15467 0.155608 0.155768 0.154837 0.153102 0.152314 0.15214
0.152437 0.153252 0.153248 0.15242 0.152042 0.152032 0.152394 0.153223 0.153225 0.152401
0.152034 0.152031 0.152396 0.153223 0.153224 0.152398 0.152032 0.152032 0.152398 0.153223
0.153223 0.152396 0.152031 0.152033 0.152401 0.153225 0.153222 0.152393 0.152032 0.152042
0.152421 0.153248 0.153253 0.152437 0.152141 0.152315 0.153103 0.154838 0.15577 0.156064
0.155212 0.153537 0.152538 0.152305 0.152659 0.153423 0.153418 0.152641 0.152185 0.152173
0.152609 0.153386 0.153389 0.152616 0.152173 0.152171 0.152611 0.153386 0.153387 0.152612
0.152172 0.152172 0.152612 0.153387 0.153386 0.152611 0.152171 0.152173 0.152616 0.153389
0.153387 0.152609 0.152173 0.152184 0.15264 0.153416 0.153422 0.152658 0.152303 0.152535
0.153533 0.155206 0.156058 0.156425 0.155609 0.153999 0.152897 0.152607 0.152973 0.153685
0.153675 0.152935 0.152449 0.152438 0.152904 0.153639 0.153641 0.152909 0.152437 0.152436
0.152907 0.153641 0.153642 0.152908 0.152436 0.152436 0.152907 0.153642 0.153641 0.152906
0.152435 0.152437 0.152909 0.153641 0.153639 0.152904 0.152438 0.152449 0.152935 0.153674
0.153684 0.152972 0.152606 0.152895 0.153996 0.155605 0.156421 
XH2Oair 1 968 float
0.223832 0.22276 0.221531 0.221282 0.221277 0.22145 0.222255 0.222229 0.22144 0.221272 0.221271
0.221442 0.222235 0.22223 0.22144 0.22127 0.22127 0.22144 0.22223 0.22223 0.22144
0.22127 0.22127 0.22144 0.22223 0.222232 0.221441 0.221271 0.22127 0.22144 0.222233
0.222238 0.221444 0.221272 0.221271 0.221439 0.222227 0.222253 0.221449 0.221274 0.221277
0.221524 0.222747 0.223813 0.223879 0.222881 0.22172 0.221434 0.221428 0.221637 0.222414
0.222392 0.221626 0.221422 0.221424 0.221631 0.222402 0.222398 0.221629 0.221424 0.221425
0.221631 0.222402 0.222402 0.221631 0.221425 0.221425 0.221631 0.222402 0.222402 0.22163
0.221424 0.221424 0.221629 0.222398 0.222403 0.221631 0.221424 0.221422 0.221625 0.222391
0.222413 0.221637 0.221427 0.221432 0.221717 0.222876 0.223871 0.224256 0.223294 0.22196
0.221593 0.221579 0.221837 0.222674 0.222655 0.221824 0.221572 0.221573 0.22183 0.222662
0.222657 0.221825 0.221571 0.221572 0.221827 0.222659 0.222659 0.221826 0.221571 0.221571
0.221826 0.222659 0.222659 0.221826 0.221572 0.221571 0.221825 0.222657 0.222663 0.22183
0.221573 0.221571 0.221824 0.222654 0.222673 0.221836 0.221579 0.221592 0.221958 0.223289
0.22425 0.224721 0.223778 0.222225 0.221755 0.221729 0.222038 0.222935 0.222925 0.22202
0.221716 0.221719 0.222028 0.222928 0.222926 0.222025 0.221718 0.221719 0.222027 0.222929
0.222929 0.222028 0.22172 0.22172 0.222028 0.222929 0.22293 0.222029 0.22172 0.221718
0.222025 0.222926 0.222929 0.222029 0.221719 0.221716 0.22202 0.222924 0.222935 0.222037
0.221728 0.221754 0.222222 0.223774 0.224716 0.225149 0.224175 0.22247 0.221911 0.22187
0.222214 0.223162 0.223155 0.222193 0.221851 0.221854 0.222202 0.223156 0.223154 0.222197
0.221851 0.221852 0.222199 0.223153 0.223152 0.222198 0.221852 0.221852 0.222198 0.223152
0.223152 0.222199 0.221852 0.221851 0.222197 0.223152 0.223154 0.222201 0.221853 0.221851
0.222194 0.223155 0.223163 0.222215 0.221872 0.221914 0.222472 0.224178 0.225152 0.225538
0.224524 0.222703 0.222063 0.222003 0.22237 0.223355 0.223348 0.222349 0.221975 0.221976
0.222355 0.223345 0.223344 0.222351 0.221974 0.221975 0.222352 0.223343 0.223343 0.222352
0.221975 0.221975 0.222351 0.223343 0.223344 0.222353 0.221975 0.221974 0.222351 0.223345
0.223347 0.222356 0.221977 0.221974 0.222348 0.223347 0.223355 0.22237 0.222001 0.22206
0.222699 0.224518 0.225532 0.225869 0.224808 0.222891 0.222196 0.222118 0.2225 0.223515
0.223508 0.222478 0.222083 0.222086 0.222484 0.223506 0.223505 0.222481 0.222085 0.222087
0.222484 0.223507 0.223507 0.222484 0.222087 0.222087 0.222484 0.223507 0.223507 0.222483
0.222086 0.222085 0.222481 0.223505 0.223506 0.222484 0.222086 0.222083 0.222477 0.223507
0.223514 0.2225 0.222117 0.222194 0.222889 0.224805 0.225865 0.226156 0.225055 0.22306
0.222321 0.222228 0.222619 0.223656 0.223648 0.222595 0.222186 0.222188 0.222599 0.223644
0.223643 0.222597 0.222187 0.222187 0.222597 0.223643 0.223643 0.222598 0.222187 0.222187
0.222597 0.223643 0.223643 0.222597 0.222187 0.222186 0.222597 0.223643 0.223644 0.2226
0.222188 0.222186 0.222595 0.223648 0.223655 0.222618 0.222228 0.222319 0.223058 0.225052
0.226153 0.226402 0.225265 0.223206 0.222433 0.222328 0.222722 0.223774 0.223767 0.222698
0.222278 0.222279 0.2227 0.223762 0.223763 0.222702 0.22228 0.22228 0.222701 0.223764
0.223764 0.222702 0.222281 0.222281 0.222702 0.223764 0.223765 0.222702 0.222281 0.22228
0.222701 0.223763 0.223763 0.222701 0.22228 0.222278 0.222698 0.223767 0.223774 0.222722
0.222328 0.222432 0.223204 0.225262 0.226399 0.226615 0.22545 0.223341 0.22254 0.222424
0.22282 0.223884 0.223876 0.222796 0.222367 0.222368 0.222796 0.22387 0.223871 0.222796
0.222367 0.222367 0.222794 0.223869 0.223868 0.222795 0.222367 0.222367 0.222795 0.223868
0.223868 0.222794 0.222367 0.222367 0.222796 0.223869 0.223869 0.222795 0.222367 0.222368
0.222796 0.223877 0.223885 0.222821 0.222426 0.222542 0.223342 0.225452 0.226618 0.226806
0.225616 0.223466 0.222644 0.222517 0.222911 0.223984 0.223976 0.222886 0.222451 0.222449
0.222882 0.223965 0.223966 0.222884 0.222449 0.222448 0.222881 0.223964 0.223964 0.222883
0.22245 0.222449 0.222883 0.223964 0.223964 0.222881 0.222449 0.22245 0.222883 0.223966
0.223966 0.222883 0.22245 0.22245 0.222885 0.223975 0.223983 0.222911 0.222515 0.222641
0.223462 0.22561 0.226799 0.226964 0.225757 0.223577 0.222736 0.222599 0.222993 0.224069
0.224062 0.222968 0.222528 0.222526 0.222962 0.224051 0.224053 0.222966 0.222528 0.222528
0.222964 0.224053 0.224054 0.222966 0.222529 0.222529 0.222966 0.224054 0.224053 0.222963
0.222527 0.222528 0.222966 0.224053 0.224051 0.222962 0.222526 0.222528 0.222967 0.224061
0.224069 0.222993 0.222599 0.222735 0.223575 0.225753 0.226959 0.227104 0.225883 0.223679
0.222826 0.222682 0.223073 0.22415 0.224145 0.223046 0.222603 0.222601 0.223037 0.224128
0.224132 0.223043 0.222602 0.222601 0.223038 0.224132 0.224133 0.22304 0.222601 0.222601
0.22304 0.224132 0.224132 0.223038 0.222601 0.222602 0.223042 0.224132 0.224128 0.223038
0.222601 0.222603 0.223046 0.224144 0.22415 0.223073 0.222681 0.222825 0.223677 0.22588
0.2271 0.227232 0.226002 0.22378 0.222912 0.222759 0.223148 0.224226 0.22422 0.223121
0.222674 0.222671 0.223109 0.224203 0.224208 0.223117 0.222674 0.222672 0.223112 0.22421
0.22421 0.223115 0.222674 0.222674 0.223115 0.22421 0.22421 0.223114 0.222673 0.222674
0.223117 0.224208 0.224204 0.223109 0.222671 0.222674 0.22312 0.22422 0.224226 0.223148
0.222759 0.222911 0.223778 0.225998 0.227228 0.227348 0.226108 0.22387 0.222994 0.222836
0.223221 0.224296 0.224294 0.223193 0.222745 0.22274 0.223179 0.224275 0.224281 0.223186
0.222742 0.22274 0.223181 0.224279 0.22428 0.223183 0.222741 0.222741 0.223183 0.22428
0.224278 0.223181 0.22274 0.222742 0.223185 0.224279 0.224274 0.223178 0.22274 0.222745
0.223194 0.224295 0.224297 0.223222 0.222837 0.222996 0.223871 0.22611 0.22735 0.227465
0.226221 0.223971 0.223081 0.222914 0.223294 0.224369 0.224368 0.223269 0.222816 0.222808
0.223248 0.224348 0.224352 0.223257 0.22281 0.222807 0.22325 0.224349 0.224351 0.223254
0.222809 0.222809 0.223254 0.224351 0.22435 0.22325 0.222808 0.22281 0.223256 0.224352
0.224349 0.223249 0.222808 0.222815 0.223268 0.224367 0.224368 0.223293 0.222911 0.223077
0.223966 0.226214 0.227458 0.227569 0.226319 0.224059 0.223159 0.222984 0.223361 0.224434
0.224435 0.223335 0.22288 0.222873 0.223313 0.224414 0.224419 0.223322 0.222875 0.222874
0.223317 0.22442 0.224421 0.223321 0.222876 0.222875 0.223321 0.224421 0.22442 0.223316
0.222873 0.222875 0.223322 0.224419 0.224414 0.223313 0.222873 0.22288 0.223335 0.224434
0.224434 0.22336 0.222983 0.223157 0.224056 0.226315 0.227564 0.227683 0.226438 0.224174
0.223249 0.223062 0.223437 0.224515 0.224512 0.223414 0.222952 0.222942 0.223387 0.224487
0.224491 0.223397 0.222945 0.222942 0.22339 0.224489 0.224491 0.223394 0.222943 0.222943
0.223393 0.224491 0.224489 0.22339 0.222942 0.222944 0.223397 0.224491 0.224487 0.223387
0.222943 0.222951 0.223413 0.224511 0.224515 0.223437 0.223061 0.223247 0.224171 0.226434
0.227679 0.227827 0.226593 0.224324 0.223351 0.223145 0.223523 0.224601 0.224596 0.223501
0.223026 0.223016 0.223469 0.224567 0.224571 0.223481 0.223019 0.223016 0.223474 0.224571
0.224573 0.223479 0.223018 0.223018 0.223479 0.224572 0.224571 0.223475 0.223017 0.223019
0.223481 0.224571 0.224568 0.22347 0.223016 0.223026 0.2235 0.224595 0.224601 0.223523
0.223144 0.22335 0.224321 0.226589 0.227823 0.228034 0.226808 0.22452 0.223478 0.223249
0.22364 0.224718 0.224711 0.223618 0.223118 0.223106 0.223583 0.224678 0.224682 0.223594
0.223107 0.223104 0.223586 0.224679 0.224679 0.223589 0.223106 0.223106 0.223589 0.224679
0.224678 0.223586 0.223104 0.223107 0.223593 0.224681 0.224677 0.223583 0.223105 0.223119
0.223619 0.224712 0.224719 0.223641 0.22325 0.22348 0.224521 0.22681 0.228037 0.228424
0.227302 0.225094 0.223775 0.223467 0.223934 0.224944 0.224936 0.22391 0.223308 0.223292
0.223867 0.224894 0.224897 0.223877 0.223292 0.223289 0.22387 0.224894 0.224895 0.223872
0.22329 0.22329 0.223872 0.224895 0.224894 0.22387 0.22329 0.223292 0.223876 0.224898
0.224895 0.223868 0.223292 0.223307 0.223908 0.224934 0.224942 0.223933 0.223465 0.223771
0.225088 0.227294 0.228415 0.228898 0.227824 0.225702 0.224249 0.223866 0.224349 0.225289
0.225275 0.224299 0.223657 0.223641 0.224258 0.225228 0.225231 0.224264 0.223641 0.223639
0.224261 0.225231 0.225232 0.224262 0.22364 0.22364 0.224262 0.225231 0.225231 0.22426
0.223638 0.22364 0.224264 0.225231 0.225228 0.224257 0.223641 0.223656 0.224298 0.225274
0.225288 0.224348 0.223864 0.224247 0.225698 0.227819 0.228892 
rho 1 968 float
0.911964 0.912464 0.91308 0.913231 0.913236 0.913123 0.912701 0.912714 0.91313 0.913243 0.913243
0.913131 0.912714 0.912716 0.913132 0.913245 0.913245 0.913133 0.912717 0.912718 0.913133
0.913245 0.913245 0.913133 0.912718 0.912717 0.913133 0.913245 0.913245 0.913132 0.912715
0.912713 0.91313 0.913243 0.913243 0.913131 0.912715 0.912703 0.913124 0.913237 0.913234
0.913083 0.91247 0.911973 0.911936 0.912393 0.912948 0.913102 0.913107 0.912991 0.912609
0.91262 0.912998 0.913114 0.913114 0.912998 0.912618 0.91262 0.912999 0.913115 0.913114
0.912999 0.912619 0.91262 0.912999 0.913115 0.913115 0.912999 0.91262 0.912619 0.912999
0.913115 0.913115 0.912999 0.91262 0.912618 0.912998 0.913113 0.913114 0.912999 0.91262