# vtk DataFile Version 2.0
air_to_electrolyte
ASCII
DATASET POLYDATA
POINTS 1035 float
0.0034137 0 0 0.0034137 0.0005 0 0.0034137 0.0005 0.001 0.0034137 0
0.001 0.0034137 0.001 0 0.0034137 0.001 0.001 0.0034137 0.0015 0
0.0034137 0.0015 0.001 0.0034137 0.002 0 0.0034137 0.002 0.001 0.0034137
0.0025 0 0.0034137 0.0025 0.001 0.0034137 0.003 0 0.0034137 0.003
0.001 0.0034137 0.0035 0 0.0034137 0.0035 0.001 0.0034137 0.004 0
0.0034137 0.004 0.001 0.0034137 0.0045 0 0.0034137 0.0045 0.001 0.0034137
0.005 0 0.0034137 0.005 0.001 0.0034137 0.0055 0 0.0034137 0.0055
0.001 0.0034137 0.006 0 0.0034137 0.006 0.001 0.0034137 0.0065 0
0.0034137 0.0065 0.001 0.0034137 0.007 0 0.0034137 0.007 0.001 0.0034137
0.0075 0 0.0034137 0.0075 0.001 0.0034137 0.008 0 0.0034137 0.008
0.001 0.0034137 0.0085 0 0.0034137 0.0085 0.001 0.0034137 0.009 0
0.0034137 0.009 0.001 0.0034137 0.0095 0 0.0034137 0.0095 0.001 0.0034137
0.01 0 0.0034137 0.01 0.001 0.0034137 0.0105 0 0.0034137 0.0105
0.001 0.0034137 0.011 0 0.0034137 0.011 0.001 0.0034137 0.0115 0
0.0034137 0.0115 0.001 0.0034137 0.012 0 0.0034137 0.012 0.001 0.0034137
0.0125 0 0.0034137 0.0125 0.001 0.0034137 0.013 0 0.0034137 0.013
0.001 0.0034137 0.0135 0 0.0034137 0.0135 0.001 0.0034137 0.014 0
0.0034137 0.014 0.001 0.0034137 0.0145 0 0.0034137 0.0145 0.001 0.0034137
0.015 0 0.0034137 0.015 0.001 0.0034137 0.0155 0 0.0034137 0.0155
0.001 0.0034137 0.016 0 0.0034137 0.016 0.001 0.0034137 0.0165 0
0.0034137 0.0165 0.001 0.0034137 0.017 0 0.0034137 0.017 0.001 0.0034137
0.0175 0 0.0034137 0.0175 0.001 0.0034137 0.018 0 0.0034137 0.018
0.001 0.0034137 0.0185 0 0.0034137 0.0185 0.001 0.0034137 0.019 0
0.0034137 0.019 0.001 0.0034137 0.0195 0 0.0034137 0.0195 0.001 0.0034137
0.02 0 0.0034137 0.02 0.001 0.0034137 0.0205 0 0.0034137 0.0205
0.001 0.0034137 0.021 0 0.0034137 0.021 0.001 0.0034137 0.0215 0
0.0034137 0.0215 0.001 0.0034137 0.022 0 0.0034137 0.022 0.001 0.0034137
0.0005 0.002 0.0034137 0 0.002 0.0034137 0.001 0.002 0.0034137 0.0015
0.002 0.0034137 0.002 0.002 0.0034137 0.0025 0.002 0.0034137 0.003 0.002
0.0034137 0.0035 0.002 0.0034137 0.004 0.002 0.0034137 0.0045 0.002 0.0034137
0.005 0.002 0.0034137 0.0055 0.002 0.0034137 0.006 0.002 0.0034137 0.0065
0.002 0.0034137 0.007 0.002 0.0034137 0.0075 0.002 0.0034137 0.008 0.002
0.0034137 0.0085 0.002 0.0034137 0.009 0.002 0.0034137 0.0095 0.002 0.0034137
0.01 0.002 0.0034137 0.0105 0.002 0.0034137 0.011 0.002 0.0034137 0.0115
0.002 0.0034137 0.012 0.002 0.0034137 0.0125 0.002 0.0034137 0.013 0.002
0.0034137 0.0135 0.002 0.0034137 0.014 0.002 0.0034137 0.0145 0.002 0.0034137
0.015 0.002 0.0034137 0.0155 0.002 0.0034137 0.016 0.002 0.0034137 0.0165
0.002 0.0034137 0.017 0.002 0.0034137 0.0175 0.002 0.0034137 0.018 0.002
0.0034137 0.0185 0.002 0.0034137 0.019 0.002 0.0034137 0.0195 0.002 0.0034137
0.02 0.002 0.0034137 0.0205 0.002 0.0034137 0.021 0.002 0.0034137 0.0215
0.002 0.0034137 0.022 0.002 0.0034137 0.0005 0.003 0.0034137 0 0.003
0.0034137 0.001 0.003 0.0034137 0.0015 0.003 0.0034137 0.002 0.003 0.0034137
0.0025 0.003 0.0034137 0.003 0.003 0.0034137 0.0035 0.003 0.0034137 0.004
0.003 0.0034137 0.0045 0.003 0.0034137 0.005 0.003 0.0034137 0.0055 0.003
0.0034137 0.006 0.003 0.0034137 0.0065 0.003 0.0034137 0.007 0.003 0.0034137
0.0075 0.003 0.0034137 0.008 0.003 0.0034137 0.0085 0.003 0.0034137 0.009
0.003 0.0034137 0.0095 0.003 0.0034137 0.01 0.003 0.0034137 0.0105 0.003
0.0034137 0.011 0.003 0.0034137 0.0115 0.003 0.0034137 0.012 0.003 0.0034137
0.0125 0.003 0.0034137 0.013 0.003 0.0034137 0.0135 0.003 0.0034137 0.014
0.003 0.0034137 0.0145 0.003 0.0034137 0.015 0.003 0.0034137 0.0155 0.003
0.0034137 0.016 0.003 0.0034137 0.0165 0.003 0.0034137 0.017 0.003 0.0034137
0.0175 0.003 0.0034137 0.018 0.003 0.0034137 0.0185 0.003 0.0034137 0.019
0.003 0.0034137 0.0195 0.003 0.0034137 0.02 0.003 0.0034137 0.0205 0.003
0.0034137 0.021 0.003 0.0034137 0.0215 0.003 0.0034137 0.022 0.003 0.0034137
0.0005 0.004 0.0034137 0 0.004 0.0034137 0.001 0.004 0.0034137 0.0015
0.004 0.0034137 0.002 0.004 0.0034137 0.0025 0.004 0.0034137 0.003 0.004
0.0034137 0.0035 0.004 0.0034137 0.004 0.004 0.0034137 0.0045 0.004 0.0034137
0.005 0.004 0.0034137 0.0055 0.004 0.0034137 0.006 0.004 0.0034137 0.0065
0.004 0.0034137 0.007 0.004 0.0034137 0.0075 0.004 0.0034137 0.008 0.004
0.0034137 0.0085 0.004 0.0034137 0.009 0.004 0.0034137 0.0095 0.004 0.0034137
0.01 0.004 0.0034137 0.0105 0.004 0.0034137 0.011 0.004 0.0034137 0.0115
0.004 0.0034137 0.012 0.004 0.0034137 0.0125 0.004 0.0034137 0.013 0.004
0.0034137 0.0135 0.004 0.0034137 0.014 0.004 0.0034137 0.0145 0.004 0.0034137
0.015 0.004 0.0034137 0.0155 0.004 0.0034137 0.016 0.004 0.0034137 0.0165
0.004 0.0034137 0.017 0.004 0.0034137 0.0175 0.004 0.0034137 0.018 0.004
0.0034137 0.0185 0.004 0.0034137 0.019 0.004 0.0034137 0.0195 0.004 0.0034137
0.02 0.004 0.0034137 0.0205 0.004 0.0034137 0.021 0.004 0.0034137 0.0215
0.004 0.0034137 0.022 0.004 0.0034137 0.0005 0.005 0.0034137 0 0.005
0.0034137 0.001 0.005 0.0034137 0.0015 0.005 0.0034137 0.002 0.005 0.0034137
0.0025 0.005 0.0034137 0.003 0.005 0.0034137 0.0035 0.005 0.0034137 0.004
0.005 0.0034137 0.0045 0.005 0.0034137 0.005 0.005 0.0034137 0.0055 0.005
0.0034137 0.006 0.005 0.0034137 0.0065 0.005 0.0034137 0.007 0.005 0.0034137
0.0075 0.005 0.0034137 0.008 0.005 0.0034137 0.0085 0.005 0.0034137 0.009
0.005 0.0034137 0.0095 0.005 0.0034137 0.01 0.005 0.0034137 0.0105 0.005
0.0034137 0.011 0.005 0.0034137 0.0115 0.005 0.0034137 0.012 0.005 0.0034137
0.0125 0.005 0.0034137 0.013 0.005 0.0034137 0.0135 0.005 0.0034137 0.014
0.005 0.0034137 0.0145 0.005 0.0034137 0.015 0.005 0.0034137 0.0155 0.005
0.0034137 0.016 0.005 0.0034137 0.0165 0.005 0.0034137 0.017 0.005 0.0034137
0.0175 0.005 0.0034137 0.018 0.005 0.0034137 0.0185 0.005 0.0034137 0.019
0.005 0.0034137 0.0195 0.005 0.0034137 0.02 0.005 0.0034137 0.0205 0.005
0.0034137 0.021 0.005 0.0034137 0.0215 0.005 0.0034137 0.022 0.005 0.0034137
0.0005 0.006 0.0034137 0 0.006 0.0034137 0.001 0.006 0.0034137 0.0015
0.006 0.0034137 0.002 0.006 0.0034137 0.0025 0.006 0.0034137 0.003 0.006
0.0034137 0.0035 0.006 0.0034137 0.004 0.006 0.0034137 0.0045 0.006 0.0034137
0.005 0.006 0.0034137 0.0055 0.006 0.0034137 0.006 0.006 0.0034137 0.0065
0.006 0.0034137 0.007 0.006 0.0034137 0.0075 0.006 0.0034137 0.008 0.006
0.0034137 0.0085 0.006 0.0034137 0.009 0.006 0.0034137 0.0095 0.006 0.0034137
0.01 0.006 0.0034137 0.0105 0.006 0.0034137 0.011 0.006 0.0034137 0.0115
0.006 0.0034137 0.012 0.006 0.0034137 0.0125 0.006 0.0034137 0.013 0.006
0.0034137 0.0135 0.006 0.0034137 0.014 0.006 0.0034137 0.0145 0.006 0.0034137
0.015 0.006 0.0034137 0.0155 0.006 0.0034137 0.016 0.006 0.0034137 0.0165
0.006 0.0034137 0.017 0.006 0.0034137 0.0175 0.006 0.0034137 0.018 0.006
0.0034137 0.0185 0.006 0.0034137 0.019 0.006 0.0034137 0.0195 0.006 0.0034137
0.02 0.006 0.0034137 0.0205 0.006 0.0034137 0.021 0.006 0.0034137 0.0215
0.006 0.0034137 0.022 0.006 0.0034137 0.0005 0.007 0.0034137 0 0.007
0.0034137 0.001 0.007 0.0034137 0.0015 0.007 0.0034137 0.002 0.007 0.0034137
0.0025 0.007 0.0034137 0.003 0.007 0.0034137 0.0035 0.007 0.0034137 0.004
0.007 0.0034137 0.0045 0.007 0.0034137 0.005 0.007 0.0034137 0.0055 0.007
0.0034137 0.006 0.007 0.0034137 0.0065 0.007 0.0034137 0.007 0.007 0.0034137
0.0075 0.007 0.0034137 0.008 0.007 0.0034137 0.0085 0.007 0.0034137 0.009
0.007 0.0034137 0.0095 0.007 0.0034137 0.01 0.007 0.0034137 0.0105 0.007
0.0034137 0.011 0.007 0.0034137 0.0115 0.007 0.0034137 0.012 0.007 0.0034137
0.0125 0.007 0.0034137 0.013 0.007 0.0034137 0.0135 0.007 0.0034137 0.014
0.007 0.0034137 0.0145 0.007 0.0034137 0.015 0.007 0.0034137 0.0155 0.007
0.0034137 0.016 0.007 0.0034137 0.0165 0.007 0.0034137 0.017 0.007 0.0034137
0.0175 0.007 0.0034137 0.018 0.007 0.0034137 0.0185 0.007 0.0034137 0.019
0.007 0.0034137 0.0195 0.007 0.0034137 0.02 0.007 0.0034137 0.0205 0.007
0.0034137 0.021 0.007 0.0034137 0.0215 0.007 0.0034137 0.022 0.007 0.0034137
0.0005 0.008 0.0034137 0 0.008 0.0034137 0.001 0.008 0.0034137 0.0015
0.008 0.0034137 0.002 0.008 0.0034137 0.0025 0.008 0.0034137 0.003 0.008
0.0034137 0.0035 0.008 0.0034137 0.004 0.008 0.0034137 0.0045 0.008 0.0034137
0.005 0.008 0.0034137 0.0055 0.008 0.0034137 0.006 0.008 0.0034137 0.0065
0.008 0.0034137 0.007 0.008 0.0034137 0.0075 0.008 0.0034137 0.008 0.008
0.0034137 0.0085 0.008 0.0034137 0.009 0.008 0.0034137 0.0095 0.008 0.0034137
0.01 0.008 0.0034137 0.0105 0.008 0.0034137 0.011 0.008 0.0034137 0.0115
0.008 0.0034137 0.012 0.008 0.0034137 0.0125 0.008 0.0034137 0.013 0.008
0.0034137 0.0135 0.008 0.0034137 0.014 0.008 0.0034137 0.0145 0.008 0.0034137
0.015 0.008 0.0034137 0.0155 0.008 0.0034137 0.016 0.008 0.0034137 0.0165
0.008 0.0034137 0.017 0.008 0.0034137 0.0175 0.008 0.0034137 0.018 0.008
0.0034137 0.0185 0.008 0.0034137 0.019 0.008 0.0034137 0.0195 0.008 0.0034137
0.02 0.008 0.0034137 0.0205 0.008 0.0034137 0.021 0.008 0.0034137 0.0215
0.008 0.0034137 0.022 0.008 0.0034137 0.0005 0.009 0.0034137 0 0.009
0.0034137 0.001 0.009 0.0034137 0.0015 0.009 0.0034137 0.002 0.009 0.0034137
0.0025 0.009 0.0034137 0.003 0.009 0.0034137 0.0035 0.009 0.0034137 0.004
0.009 0.0034137 0.0045 0.009 0.0034137 0.005 0.009 0.0034137 0.0055 0.009
0.0034137 0.006 0.009 0.0034137 0.0065 0.009 0.0034137 0.007 0.009 0.0034137
0.0075 0.009 0.0034137 0.008 0.009 0.0034137 0.0085 0.009 0.0034137 0.009
0.009 0.0034137 0.0095 0.009 0.0034137 0.01 0.009 0.0034137 0.0105 0.009
0.0034137 0.011 0.009 0.0034137 0.0115 0.009 0.0034137 0.012 0.009 0.0034137
0.0125 0.009 0.0034137 0.013 0.009 0.0034137 0.0135 0.009 0.0034137 0.014
0.009 0.0034137 0.0145 0.009 0.0034137 0.015 0.009 0.0034137 0.0155 0.009
0.0034137 0.016 0.009 0.0034137 0.0165 0.009 0.0034137 0.017 0.009 0.0034137
0.0175 0.009 0.0034137 0.018 0.009 0.0034137 0.0185 0.009 0.0034137 0.019
0.009 0.0034137 0.0195 0.009 0.0034137 0.02 0.009 0.0034137 0.0205 0.009
0.0034137 0.021 0.009 0.0034137 0.0215 0.009 0.0034137 0.022 0.009 0.0034137
[...]
CELL_DATA 968
FIELD attributes 16
patchID 1 968 float
5 5 5 5 5 5 5 5 5 5 5
5 5 5 5 5 5 5 5 5 5
5 5 5 5 5 5 5 5 5 5
5 5 5 5 5 5 5 5 5 5
5 5 5 5 5 5 5 5 5 5
5 5 5 5 5 5 5 5 5 5
5 5 5 5 5 5 5 5 5 5
5 5 5 5 5 5 5 5 5 5
5 5 5 5 5 5 5 5 5 5
5 5 5 5 5 5 5 5 5 5
5 5 5 5 5 5 5 5 5 5
5 5 5 5 5 5 5 5 5 5
5 5 5 5 5 5 5 5 5 5
5 5 5 5 5 5 5 5 5 5
5 5 5 5 5 5 5 5 5 5
5 5 5 5 5 5 5 5 5 5
5 5 5 5 5 5 5 5 5 5
5 5 5 5 5 5 5 5 5 5
5 5 5 5 5 5 5 5 5 5
5 5 5 5 5 5 5 5 5 5
5 5 5 5 5 5 5 5 5 5
5 5 5 5 5 5 5 5 5 5
5 5 5 5 5 5 5 5 5 5
5 5 5 5 5 5 5 5 5 5
5 5 5 5 5 5 5 5 5 5
5 5 5 5 5 5 5 5 5 5
5 5 5 5 5 5 5 5 5 5
5 5 5 5 5 5 5 5 5 5
5 5 5 5 5 5 5 5 5 5
5 5 5 5 5 5 5 5 5 5
5 5 5 5 5 5 5 5 5 5
5 5 5 5 5 5 5 5 5 5
5 5 5 5 5 5 5 5 5 5
5 5 5 5 5 5 5 5 5 5
5 5 5 5 5 5 5 5 5 5
5 5 5 5 5 5 5 5 5 5
5 5 5 5 5 5 5 5 5 5
5 5 5 5 5 5 5 5 5 5
5 5 5 5 5 5 5 5 5 5
5 5 5 5 5 5 5 5 5 5
5 5 5 5 5 5 5 5 5 5
5 5 5 5 5 5 5 5 5 5
5 5 5 5 5 5 5 5 5 5
5 5 5 5 5 5 5 5 5 5
5 5 5 5 5 5 5 5 5 5
5 5 5 5 5 5 5 5 5 5
5 5 5 5 5 5 5 5 5 5
5 5 5 5 5 5 5 5 5 5
5 5 5 5 5 5 5 5 5 5
5 5 5 5 5 5 5 5 5 5
5 5 5 5 5 5 5 5 5 5
5 5 5 5 5 5 5 5 5 5
5 5 5 5 5 5 5 5 5 5
5 5 5 5 5 5 5 5 5 5
5 5 5 5 5 5 5 5 5 5
5 5 5 5 5 5 5 5 5 5
5 5 5 5 5 5 5 5 5 5
5 5 5 5 5 5 5 5 5 5
5 5 5 5 5 5 5 5 5 5
5 5 5 5 5 5 5 5 5 5
5 5 5 5 5 5 5 5 5 5
5 5 5 5 5 5 5 5 5 5
5 5 5 5 5 5 5 5 5 5
5 5 5 5 5 5 5 5 5 5
5 5 5 5 5 5 5 5 5 5
5 5 5 5 5 5 5 5 5 5
5 5 5 5 5 5 5 5 5 5
5 5 5 5 5 5 5 5 5 5
5 5 5 5 5 5 5 5 5 5
5 5 5 5 5 5 5 5 5 5
5 5 5 5 5 5 5 5 5 5
5 5 5 5 5 5 5 5 5 5
5 5 5 5 5 5 5 5 5 5
5 5 5 5 5 5 5 5 5 5
5 5 5 5 5 5 5 5 5 5
5 5 5 5 5 5 5 5 5 5
5 5 5 5 5 5 5 5 5 5
5 5 5 5 5 5 5 5 5 5
5 5 5 5 5 5 5 5 5 5
5 5 5 5 5 5 5 5 5 5
5 5 5 5 5 5 5 5 5 5
5 5 5 5 5 5 5 5 5 5
5 5 5 5 5 5 5 5 5 5
5 5 5 5 5 5 5 5 5 5
5 5 5 5 5 5 5 5 5 5
5 5 5 5 5 5 5 5 5 5
5 5 5 5 5 5 5 5 5 5
5 5 5 5 5 5 5 5 5 5
5 5 5 5 5 5 5 5 5 5
5 5 5 5 5 5 5 5 5 5
5 5 5 5 5 5 5 5 5 5
5 5 5 5 5 5 5 5 5 5
5 5 5 5 5 5 5 5 5 5
5 5 5 5 5 5 5 5 5 5
5 5 5 5 5 5 5 5 5 5
5 5 5 5 5 5 5 5 5 5
5 5 5 5 5 5 5 
YH2Oair 1 968 float
0.152323 0.151593 0.150835 0.150684 0.150686 0.150802 0.151348 0.151328 0.150795 0.150684 0.150684
0.150797 0.151335 0.151331 0.150795 0.150683 0.150683 0.150795 0.151331 0.151331 0.150795
0.150683 0.150683 0.150795 0.151331 0.151332 0.150796 0.150684 0.150683 0.150795 0.151332
0.151337 0.150798 0.150685 0.150684 0.150794 0.151327 0.151347 0.150801 0.150684 0.150681
0.15083 0.151585 0.152311 0.152518 0.151823 0.151004 0.150808 0.150807 0.150959 0.151527
0.151506 0.150949 0.150804 0.150805 0.150954 0.151516 0.151512 0.150951 0.150805 0.150806
0.150954 0.151515 0.151515 0.150953 0.150806 0.150806 0.150953 0.151515 0.151515 0.150953
0.150805 0.150805 0.150952 0.151512 0.151516 0.150954 0.150805 0.150803 0.150948 0.151505
0.151526 0.150959 0.150807 0.150807 0.151002 0.15182 0.152512 0.152828 0.152151 0.151199
0.150939 0.150933 0.151121 0.151738 0.151715 0.151107 0.150925 0.150927 0.151114 0.151724
0.15172 0.15111 0.150926 0.150926 0.151111 0.151722 0.151721 0.151111 0.150926 0.150926
0.151111 0.151721 0.151722 0.151111 0.150926 0.150926 0.15111 0.15172 0.151725 0.151114
0.150927 0.150925 0.151107 0.151715 0.151737 0.151121 0.150932 0.150938 0.151197 0.152148
0.152824 0.153182 0.152514 0.151403 0.151068 0.151052 0.151278 0.151936 0.151924 0.151258
0.151039 0.151042 0.151267 0.151927 0.151926 0.151265 0.151042 0.151042 0.151266 0.151928
0.151928 0.151267 0.151043 0.151043 0.151267 0.151928 0.151929 0.151268 0.151043 0.151042
0.151265 0.151926 0.151928 0.151268 0.151042 0.151039 0.151258 0.151924 0.151936 0.151278
0.151052 0.151067 0.151402 0.152511 0.153178 0.153506 0.152811 0.151586 0.151189 0.151162
0.151411 0.152108 0.1521 0.15139 0.151144 0.151147 0.151399 0.152101 0.1521 0.151395
0.151145 0.151146 0.151397 0.152099 0.152099 0.151396 0.151146 0.151145 0.151396 0.152098
0.152099 0.151397 0.151146 0.151145 0.151395 0.152099 0.1521 0.151399 0.151146 0.151144
0.151391 0.1521 0.152109 0.151412 0.151163 0.151191 0.151588 0.152813 0.153508 0.153799
0.153069 0.151754 0.151303 0.151261 0.151525 0.152254 0.152247 0.151506 0.151238 0.151239
0.151511 0.152245 0.152244 0.151509 0.151238 0.151239 0.151509 0.152243 0.152243 0.151509
0.151238 0.151238 0.151509 0.152243 0.152244 0.15151 0.151239 0.151238 0.151509 0.152245
0.152246 0.151512 0.15124 0.151237 0.151505 0.152246 0.152253 0.151525 0.15126 0.151301
0.151751 0.153064 0.153795 0.15405 0.153281 0.151892 0.151401 0.151348 0.151621 0.152373
0.152367 0.151602 0.151319 0.151321 0.151607 0.152366 0.152366 0.151606 0.151322 0.151323
0.151607 0.152366 0.152366 0.151608 0.151323 0.151323 0.151608 0.152366 0.152366 0.151606
0.151322 0.151322 0.151606 0.152366 0.152366 0.151607 0.151321 0.151319 0.151602 0.152367
0.152373 0.151621 0.151347 0.1514 0.15189 0.153279 0.154047 0.154268 0.153466 0.152016
0.151494 0.151429 0.151708 0.152479 0.152473 0.15169 0.151396 0.151397 0.151691 0.152468
0.152469 0.151693 0.151398 0.151397 0.151692 0.152468 0.152469 0.151691 0.151397 0.151397
0.151691 0.152468 0.152469 0.151692 0.151397 0.151398 0.151693 0.152469 0.152468 0.151692
0.151397 0.151396 0.15169 0.152473 0.152479 0.151708 0.151429 0.151493 0.152014 0.153464
0.154265 0.154457 0.153626 0.152125 0.151577 0.151503 0.151784 0.152568 0.152563 0.151768
0.151465 0.151466 0.151767 0.152557 0.152559 0.15177 0.151467 0.151467 0.151768 0.15256
0.15256 0.15177 0.151468 0.151467 0.151769 0.15256 0.15256 0.151769 0.151468 0.151467
0.15177 0.152559 0.152558 0.151768 0.151466 0.151465 0.151768 0.152562 0.152568 0.151784
0.151503 0.151576 0.152123 0.153624 0.154455 0.154622 0.153767 0.152225 0.151656 0.151574
0.151857 0.152649 0.152645 0.151841 0.151532 0.151531 0.151838 0.152637 0.15264 0.151841
0.151532 0.151531 0.151837 0.152635 0.152638 0.151841 0.151532 0.151532 0.151841 0.152638
0.152635 0.151837 0.151531 0.151532 0.15184 0.152639 0.152637 0.151837 0.151531 0.151532
0.151841 0.152645 0.15265 0.151858 0.151575 0.151658 0.152226 0.153769 0.154623 0.154771
0.153896 0.152319 0.151734 0.151643 0.151925 0.152722 0.152719 0.15191 0.151595 0.151592
0.151902 0.152706 0.152711 0.151908 0.151594 0.151592 0.151902 0.152708 0.152711 0.151907
0.151594 0.151594 0.151906 0.152711 0.152708 0.151903 0.151593 0.151594 0.151907 0.152712
0.152707 0.151903 0.151593 0.151594 0.151909 0.152718 0.152721 0.151925 0.151642 0.151731
0.152316 0.153892 0.154766 0.154896 0.154007 0.152403 0.151803 0.151705 0.151986 0.152785
0.152784 0.151971 0.151653 0.15165 0.151961 0.152769 0.152776 0.151971 0.151654 0.151652
0.151966 0.152777 0.152778 0.151968 0.151653 0.151653 0.151967 0.152778 0.152777 0.151965
0.151652 0.151654 0.15197 0.152776 0.152769 0.151961 0.15165 0.151652 0.15197 0.152783
0.152785 0.151986 0.151704 0.151802 0.152402 0.154004 0.154893 0.15501 0.154108 0.152484
0.151871 0.151766 0.152046 0.152845 0.152846 0.152032 0.15171 0.151706 0.152019 0.15283
0.152837 0.152029 0.15171 0.151707 0.152023 0.152838 0.152839 0.152025 0.151708 0.151708
0.152025 0.152839 0.152838 0.152023 0.151707 0.15171 0.152028 0.152837 0.15283 0.152019
0.151706 0.15171 0.152031 0.152846 0.152845 0.152046 0.151766 0.15187 0.152482 0.154105
0.155007 0.155112 0.154202 0.15256 0.151935 0.151824 0.152101 0.1529 0.152903 0.152088
0.151764 0.151759 0.152073 0.152888 0.152895 0.152084 0.151763 0.151761 0.152078 0.152896
0.152899 0.152083 0.151763 0.151763 0.152082 0.152899 0.152897 0.152079 0.151762 0.151763
0.152084 0.152895 0.152888 0.152074 0.151759 0.151763 0.152088 0.152903 0.1529 0.152101
0.151824 0.151934 0.152558 0.154199 0.15511 0.155207 0.154287 0.15263 0.151997 0.151881
0.152156 0.152954 0.152959 0.152144 0.151818 0.151812 0.152128 0.152946 0.152952 0.152136
0.151815 0.151812 0.15213 0.152949 0.152953 0.152135 0.151814 0.151814 0.152134 0.152953
0.152949 0.15213 0.151812 0.151814 0.152136 0.152951 0.152945 0.152127 0.151812 0.151818
0.152144 0.15296 0.152955 0.152156 0.151882 0.151999 0.152631 0.154288 0.155208 0.1553
0.154375 0.152707 0.152063 0.15194 0.15221 0.153008 0.153016 0.152203 0.151873 0.151864
0.15218 0.153002 0.153007 0.15219 0.151867 0.151864 0.152183 0.153005 0.153007 0.152189
0.151867 0.151867 0.152188 0.153007 0.153005 0.152183 0.151864 0.151867 0.15219 0.153007
0.153003 0.152181 0.151864 0.151872 0.152202 0.153015 0.153007 0.15221 0.151938 0.15206
0.152704 0.154371 0.155295 0.155384 0.154454 0.152776 0.152122 0.151993 0.152261 0.153059
0.153067 0.152252 0.151921 0.151912 0.152229 0.153051 0.153058 0.152241 0.151917 0.151914
0.152234 0.153059 0.153061 0.152239 0.151917 0.151917 0.152238 0.153061 0.153059 0.152234
0.151914 0.151916 0.15224 0.153058 0.153051 0.152229 0.151912 0.151921 0.152252 0.153067
0.153059 0.152261 0.151992 0.152121 0.152774 0.154451 0.15538 0.155472 0.154545 0.152862
0.15219 0.152051 0.152318 0.15312 0.153124 0.15231 0.151974 0.151964 0.152283 0.153107
0.153112 0.152295 0.151968 0.151965 0.152288 0.153112 0.153113 0.152291 0.151967 0.151967
0.152291 0.153113 0.153112 0.152288 0.151965 0.151968 0.152295 0.153112 0.153107 0.152283
0.151964 0.151974 0.152309 0.153124 0.153119 0.152318 0.152051 0.152189 0.15286 0.154542
0.155469 0.155578 0.154658 0.152973 0.152268 0.152113 0.152379 0.153186 0.153186 0.152372
0.152029 0.152018 0.152343 0.153166 0.15317 0.152355 0.152022 0.152019 0.152349 0.153171
0.153172 0.152352 0.152021 0.152021 0.152352 0.153172 0.153171 0.15235 0.15202 0.152022
0.152355 0.15317 0.153167 0.152344 0.152018 0.152029 0.152372 0.153186 0.153186 0.152379
0.152113 0.152267 0.152971 0.154655 0.155575 0.155726 0.154816 0.153122 0.152367 0.152193
0.152465 0.153271 0.15327 0.152458 0.152099 0.152088 0.152427 0.153245 0.153248 0.152435
0.152089 0.152087 0.15243 0.153247 0.153247 0.152431 0.152087 0.152087 0.152431 0.153247
0.153247 0.15243 0.152087 0.152089 0.152435 0.153247 0.153244 0.152426 0.152087 0.1521
0.152458 0.153271 0.153272 0.152465 0.152194 0.152368 0.153122 0.154817 0.155727 0.156008
0.155189 0.153578 0.15263 0.152379 0.152693 0.153436 0.153431 0.152677 0.152258 0.152244
0.152642 0.153399 0.153402 0.152649 0.152243 0.152241 0.152644 0.1534 0.1534 0.152645
0.152241 0.152241 0.152645 0.1534 0.153401 0.152645 0.152242 0.152243 0.152648 0.153402
0.1534 0.152643 0.152244 0.152257 0.152676 0.15343 0.153434 0.152692 0.152377 0.152627
0.153574 0.155183 0.156002 0.156402 0.155665 0.15416 0.153079 0.152724 0.153036 0.153701
0.153691 0.152998 0.15255 0.152536 0.152964 0.153654 0.153656 0.152968 0.152534 0.152533
0.152966 0.153656 0.153656 0.152966 0.152533 0.152533 0.152966 0.153656 0.153656 0.152966
0.152533 0.152534 0.152968 0.153656 0.153654 0.152964 0.152536 0.15255 0.152997 0.15369
0.1537 0.153035 0.152723 0.153077 0.154157 0.155661 0.156398 
XH2Oair 1 968 float
0.223491 0.222524 0.221519 0.221319 0.221321 0.221475 0.222199 0.222173 0.221466 0.221319 0.221318
0.221468 0.222181 0.222176 0.221466 0.221317 0.221317 0.221466 0.222177 0.222177 0.221466
0.221317 0.221317 0.221466 0.222177 0.222178 0.221467 0.221318 0.221318 0.221466 0.222179
0.222184 0.22147 0.22132 0.221318 0.221465 0.222172 0.222198 0.221474 0.221319 0.221315
0.221513 0.222514 0.223476 0.223749 0.22283 0.221743 0.221483 0.221482 0.221683 0.222436
0.222408 0.221669 0.221477 0.221479 0.221676 0.222421 0.222416 0.221673 0.221479 0.22148
0.221676 0.22242 0.22242 0.221676 0.221481 0.221481 0.221676 0.22242 0.22242 0.221675
0.221479 0.221479 0.221674 0.222416 0.222422 0.221676 0.221479 0.221477 0.221669 0.222408
0.222435 0.221683 0.221481 0.221481 0.221741 0.222825 0.223742 0.22416 0.223264 0.222002
0.221657 0.221648 0.221898 0.222715 0.222685 0.22188 0.221638 0.221641 0.221888 0.222697
0.222691 0.221884 0.221639 0.22164 0.221885 0.222694 0.222693 0.221885 0.221639 0.221639
0.221885 0.222693 0.222694 0.221885 0.221639 0.221639 0.221884 0.222692 0.222698 0.221889
0.221641 0.221638 0.22188 0.222685 0.222714 0.221898 0.221648 0.221656 0.222 0.223259
0.224154 0.224627 0.223744 0.222273 0.221828 0.221806 0.222106 0.222977 0.222962 0.22208
0.221789 0.221793 0.222092 0.222966 0.222964 0.222088 0.221793 0.221794 0.222091 0.222967
0.222967 0.222091 0.221795 0.221795 0.222091 0.222967 0.222968 0.222092 0.221795 0.221793
0.222088 0.222964 0.222967 0.222093 0.221794 0.221789 0.22208 0.222961 0.222977 0.222106
0.221806 0.221827 0.222271 0.22374 0.224623 0.225056 0.224137 0.222515 0.221988 0.221952
0.222283 0.223205 0.223194 0.222255 0.221928 0.221933 0.222267 0.223196 0.223194 0.222262
0.22193 0.221931 0.222264 0.223193 0.223192 0.222263 0.221931 0.22193 0.222262 0.223192
0.223193 0.222264 0.221931 0.22193 0.222261 0.223192 0.223194 0.222266 0.221932 0.221929
0.222255 0.223194 0.223206 0.222283 0.221953 0.221991 0.222517 0.224139 0.225057 0.225442
0.224477 0.222737 0.222139 0.222084 0.222434 0.223397 0.223388 0.222408 0.222052 0.222055
0.222415 0.223386 0.223385 0.222412 0.222053 0.222054 0.222412 0.223383 0.223383 0.222412
0.222054 0.222053 0.222412 0.223383 0.223384 0.222413 0.222054 0.222054 0.222412 0.223386
0.223387 0.222416 0.222055 0.222052 0.222407 0.223387 0.223397 0.222433 0.222082 0.222136
0.222733 0.224471 0.225436 0.225773 0.224758 0.22292 0.22227 0.222198 0.222561 0.223556
0.223548 0.222536 0.222161 0.222163 0.222542 0.223546 0.223545 0.222541 0.222164 0.222165
0.222542 0.223546 0.223546 0.222543 0.222166 0.222166 0.222543 0.223546 0.223546 0.222541
0.222164 0.222164 0.222541 0.223545 0.223546 0.222542 0.222164 0.222161 0.222535 0.223547
0.223556 0.22256 0.222198 0.222269 0.222918 0.224755 0.225769 0.226061 0.225002 0.223084
0.222392 0.222307 0.222676 0.223695 0.223687 0.222652 0.222263 0.222264 0.222654 0.223681
0.223682 0.222656 0.222265 0.222264 0.222654 0.223681 0.223681 0.222653 0.222264 0.222264
0.222653 0.223681 0.223682 0.222654 0.222264 0.222265 0.222656 0.223682 0.223681 0.222654
0.222264 0.222263 0.222652 0.223687 0.223695 0.222675 0.222306 0.222391 0.223082 0.224999
0.226057 0.226309 0.225213 0.223228 0.222503 0.222404 0.222777 0.223813 0.223806 0.222755
0.222354 0.222355 0.222753 0.223798 0.223801 0.222758 0.222357 0.222356 0.222755 0.223802
0.223802 0.222757 0.222357 0.222357 0.222757 0.223802 0.223802 0.222757 0.222357 0.222357
0.222758 0.223801 0.223799 0.222754 0.222355 0.222354 0.222755 0.223806 0.223813 0.222777
0.222404 0.222502 0.223226 0.22521 0.226306 0.226526 0.225399 0.22336 0.222608 0.222499
0.222873 0.22392 0.223915 0.222852 0.222443 0.222442 0.222848 0.223904 0.223908 0.222851
0.222443 0.222441 0.222846 0.223902 0.223906 0.222852 0.222443 0.222443 0.222851 0.223905
0.223901 0.222846 0.222441 0.222442 0.222851 0.223906 0.223904 0.222847 0.222441 0.222443
0.222852 0.223915 0.223921 0.222874 0.222501 0.22261 0.223362 0.225401 0.226528 0.226722
0.225569 0.223485 0.22271 0.22259 0.222963 0.224016 0.224013 0.222942 0.222526 0.222523
0.222932 0.223996 0.224002 0.22294 0.222525 0.222523 0.222933 0.223998 0.224001 0.222938
0.222525 0.222525 0.222938 0.224001 0.223998 0.222933 0.222523 0.222525 0.222939 0.224003
0.223997 0.222933 0.222523 0.222526 0.222941 0.224012 0.224016 0.222962 0.222588 0.222707
0.223481 0.225564 0.226717 0.226888 0.225715 0.223596 0.222802 0.222672 0.223044 0.224099
0.224098 0.223024 0.222603 0.222598 0.223011 0.224079 0.224088 0.223024 0.222604 0.222602
0.223017 0.224089 0.224091 0.223019 0.222603 0.222603 0.223019 0.224091 0.22409 0.223016
0.222601 0.222604 0.223023 0.224088 0.224079 0.223011 0.222599 0.222602 0.223023 0.224098
0.2241 0.223044 0.222671 0.2228 0.223594 0.225711 0.226884 0.227037 0.225848 0.223703
0.222892 0.222753 0.223123 0.224179 0.224181 0.223104 0.222678 0.222673 0.223087 0.224159
0.224169 0.2231 0.222678 0.222675 0.223092 0.22417 0.224171 0.223095 0.222676 0.222676
0.223094 0.224171 0.22417 0.223092 0.222675 0.222678 0.223099 0.224169 0.224159 0.223088
0.222673 0.222678 0.223103 0.22418 0.224179 0.223123 0.222752 0.22289 0.2237 0.225845
0.227033 0.227172 0.225971 0.223803 0.222977 0.22283 0.223196 0.224252 0.224256 0.223179
0.22275 0.222743 0.223159 0.224235 0.224245 0.223173 0.222749 0.222746 0.223165 0.224247
0.22425 0.223171 0.222749 0.222749 0.223171 0.22425 0.224247 0.223166 0.222747 0.222749
0.223173 0.224245 0.224236 0.22316 0.222743 0.222749 0.223178 0.224255 0.224252 0.223196
0.222829 0.222976 0.223801 0.225968 0.227169 0.227296 0.226084 0.223896 0.223059 0.222906
0.223268 0.224323 0.22433 0.223253 0.222822 0.222814 0.223231 0.224312 0.22432 0.223242
0.222817 0.222814 0.223234 0.224317 0.224321 0.22324 0.222817 0.222817 0.22324 0.224321
0.224317 0.223234 0.222814 0.222817 0.223241 0.224319 0.224311 0.22323 0.222813 0.222822
0.223253 0.224331 0.224324 0.223269 0.222907 0.223061 0.223897 0.226085 0.227298 0.227419
0.2262 0.223998 0.223146 0.222983 0.223341 0.224395 0.224405 0.223331 0.222894 0.222882
0.223301 0.224386 0.224393 0.223314 0.222886 0.222882 0.223304 0.22439 0.224394 0.223312
0.222886 0.222886 0.223311 0.224393 0.224391 0.223305 0.222883 0.222886 0.223313 0.224393
0.224387 0.223302 0.222883 0.222893 0.223329 0.224404 0.224393 0.22334 0.222981 0.223143
0.223993 0.226194 0.227413 0.227529 0.226304 0.224089 0.223225 0.223053 0.223408 0.224463
0.224473 0.223396 0.222958 0.222946 0.223365 0.224451 0.224461 0.223381 0.222952 0.222949
0.223372 0.224462 0.224464 0.223378 0.222952 0.222952 0.223377 0.224464 0.224462 0.223371
0.222948 0.222952 0.22338 0.22446 0.224451 0.223365 0.222947 0.222958 0.223395 0.224472
0.224462 0.223408 0.223053 0.223223 0.224087 0.2263 0.227524 0.227646 0.226423 0.224203
0.223315 0.223131 0.223484 0.224542 0.224548 0.223472 0.223028 0.223015 0.223437 0.224525
0.224532 0.223452 0.22302 0.223016 0.223443 0.224531 0.224533 0.223448 0.223018 0.223018
0.223447 0.224533 0.224532 0.223443 0.223016 0.22302 0.223452 0.224532 0.224525 0.223437
0.223015 0.223028 0.223471 0.224548 0.224542 0.223483 0.22313 0.223314 0.2242 0.226419
0.227641 0.227784 0.226573 0.224349 0.223417 0.223213 0.223565 0.224631 0.224631 0.223555
0.223101 0.223087 0.223517 0.224603 0.224609 0.223532 0.223092 0.223088 0.223524 0.22461
0.224611 0.223528 0.223091 0.223091 0.223528 0.224611 0.22461 0.223525 0.223089 0.223092
0.223532 0.224609 0.224604 0.223517 0.223087 0.223101 0.223554 0.22463 0.22463 0.223564
0.223212 0.223416 0.224346 0.226569 0.227781 0.227979 0.226781 0.224546 0.223549 0.223319
0.223678 0.224743 0.224741 0.223668 0.223194 0.223179 0.223627 0.224708 0.224712 0.223638
0.22318 0.223177 0.223631 0.22471 0.22471 0.223633 0.223178 0.223178 0.223632 0.22471
0.22471 0.223632 0.223177 0.22318 0.223638 0.224711 0.224707 0.223626 0.223178 0.223195
0.223668 0.224742 0.224744 0.223678 0.22332 0.22355 0.224547 0.226782 0.227981 0.228351
0.227272 0.225147 0.223897 0.223565 0.223979 0.22496 0.224954 0.223957 0.223404 0.223385
0.223912 0.224912 0.224915 0.22392 0.223384 0.223382 0.223915 0.224913 0.224913 0.223915
0.223382 0.223382 0.223915 0.224913 0.224913 0.223915 0.223382 0.223385 0.22392 0.224916
0.224913 0.223912 0.223386 0.223403 0.223956 0.224952 0.224958 0.223978 0.223562 0.223893
0.225142 0.227264 0.228343 0.228869 0.227898 0.225915 0.224488 0.224021 0.224432 0.22531
0.225297 0.224381 0.22379 0.223771 0.224336 0.225248 0.22525 0.224342 0.223769 0.223768
0.224339 0.225251 0.225251 0.224339 0.223768 0.223767 0.224339 0.225251 0.225251 0.224339
0.223767 0.223769 0.224341 0.22525 0.225248 0.224336 0.223771 0.22379 0.22438 0.225296
0.225309 0.224431 0.224019 0.224486 0.225911 0.227893 0.228863 
rho 1 968 float
0.912114 0.912564 0.913075 0.913202 0.913203 0.913101 0.912719 0.912732 0.913108 0.913208 0.913209
0.913108 0.912731 0.912734 0.91311 0.91321 0.91321 0.91311 0.912734 0.912735 0.91311
0.913211 0.913211 0.91311 0.912734 0.912734 0.91311 0.91321 0.91321 0.91311 0.912732
0.91273 0.913107 0.913208 0.913208 0.913108 0.912733 0.91272 0.913102 0.913204 0.913204
0.913078 0.912569 0.912121 0.911989 0.912409 0.912927 0.913067 0.913069 0.912959 0.912592
0.912605 0.912967 0.913076 0.913075 0.912966 0.912602 0.912604 0.912968 0.913077 0.913076
0.912967 0.912603 0.912604 0.912968 0.913076 0.913076 0.912968 0.912604 0.912603 0.912968