# vtk DataFile Version 2.0
air_to_electrolyte
ASCII
DATASET POLYDATA
POINTS 1035 float
0.0034137 0 0 0.0034137 0.0005 0 0.0034137 0.0005 0.001 0.0034137 0
0.001 0.0034137 0.001 0 0.0034137 0.001 0.001 0.0034137 0.0015 0
0.0034137 0.0015 0.001 0.0034137 0.002 0 0.0034137 0.002 0.001 0.0034137
0.0025 0 0.0034137 0.0025 0.001 0.0034137 0.003 0 0.0034137 0.003
0.001 0.0034137 0.0035 0 0.0034137 0.0035 0.001 0.0034137 0.004 0
0.0034137 0.004 0.001 0.0034137 0.0045 0 0.0034137 0.0045 0.001 0.0034137
0.005 0 0.0034137 0.005 0.001 0.0034137 0.0055 0 0.0034137 0.0055
0.001 0.0034137 0.006 0 0.0034137 0.006 0.001 0.0034137 0.0065 0
0.0034137 0.0065 0.001 0.0034137 0.007 0 0.0034137 0.007 0.001 0.0034137
0.0075 0 0.0034137 0.0075 0.001 0.0034137 0.008 0 0.0034137 0.008
0.001 0.0034137 0.0085 0 0.0034137 0.0085 0.001 0.0034137 0.009 0
0.0034137 0.009 0.001 0.0034137 0.0095 0 0.0034137 0.0095 0.001 0.0034137
0.01 0 0.0034137 0.01 0.001 0.0034137 0.0105 0 0.0034137 0.0105
0.001 0.0034137 0.011 0 0.0034137 0.011 0.001 0.0034137 0.0115 0
0.0034137 0.0115 0.001 0.0034137 0.012 0 0.0034137 0.012 0.001 0.0034137
0.0125 0 0.0034137 0.0125 0.001 0.0034137 0.013 0 0.0034137 0.013
0.001 0.0034137 0.0135 0 0.0034137 0.0135 0.001 0.0034137 0.014 0
0.0034137 0.014 0.001 0.0034137 0.0145 0 0.0034137 0.0145 0.001 0.0034137
0.015 0 0.0034137 0.015 0.001 0.0034137 0.0155 0 0.0034137 0.0155
0.001 0.0034137 0.016 0 0.0034137 0.016 0.001 0.0034137 0.0165 0
0.0034137 0.0165 0.001 0.0034137 0.017 0 0.0034137 0.017 0.001 0.0034137
0.0175 0 0.0034137 0.0175 0.001 0.0034137 0.018 0 0.0034137 0.018
0.001 0.0034137 0.0185 0 0.0034137 0.0185 0.001 0.0034137 0.019 0
0.0034137 0.019 0.001 0.0034137 0.0195 0 0.0034137 0.0195 0.001 0.0034137
0.02 0 0.0034137 0.02 0.001 0.0034137 0.0205 0 0.0034137 0.0205
0.001 0.0034137 0.021 0 0.0034137 0.021 0.001 0.0034137 0.0215 0
0.0034137 0.0215 0.001 0.0034137 0.022 0 0.0034137 0.022 0.001 0.0034137
0.0005 0.002 0.0034137 0 0.002 0.0034137 0.001 0.002 0.0034137 0.0015
0.002 0.0034137 0.002 0.002 0.0034137 0.0025 0.002 0.0034137 0.003 0.002
0.0034137 0.0035 0.002 0.0034137 0.004 0.002 0.0034137 0.0045 0.002 0.0034137
0.005 0.002 0.0034137 0.0055 0.002 0.0034137 0.006 0.002 0.0034137 0.0065
0.002 0.0034137 0.007 0.002 0.0034137 0.0075 0.002 0.0034137 0.008 0.002
0.0034137 0.0085 0.002 0.0034137 0.009 0.002 0.0034137 0.0095 0.002 0.0034137
0.01 0.002 0.0034137 0.0105 0.002 0.0034137 0.011 0.002 0.0034137 0.0115
0.002 0.0034137 0.012 0.002 0.0034137 0.0125 0.002 0.0034137 0.013 0.002
0.0034137 0.0135 0.002 0.0034137 0.014 0.002 0.0034137 0.0145 0.002 0.0034137
0.015 0.002 0.0034137 0.0155 0.002 0.0034137 0.016 0.002 0.0034137 0.0165
0.002 0.0034137 0.017 0.002 0.0034137 0.0175 0.002 0.0034137 0.018 0.002
0.0034137 0.0185 0.002 0.0034137 0.019 0.002 0.0034137 0.0195 0.002 0.0034137
0.02 0.002 0.0034137 0.0205 0.002 0.0034137 0.021 0.002 0.0034137 0.0215
0.002 0.0034137 0.022 0.002 0.0034137 0.0005 0.003 0.0034137 0 0.003
0.0034137 0.001 0.003 0.0034137 0.0015 0.003 0.0034137 0.002 0.003 0.0034137
0.0025 0.003 0.0034137 0.003 0.003 0.0034137 0.0035 0.003 0.0034137 0.004
0.003 0.0034137 0.0045 0.003 0.0034137 0.005 0.003 0.0034137 0.0055 0.003
0.0034137 0.006 0.003 0.0034137 0.0065 0.003 0.0034137 0.007 0.003 0.0034137
0.0075 0.003 0.0034137 0.008 0.003 0.0034137 0.0085 0.003 0.0034137 0.009
0.003 0.0034137 0.0095 0.003 0.0034137 0.01 0.003 0.0034137 0.0105 0.003
0.0034137 0.011 0.003 0.0034137 0.0115 0.003 0.0034137 0.012 0.003 0.0034137
0.0125 0.003 0.0034137 0.013 0.003 0.0034137 0.0135 0.003 0.0034137 0.014
0.003 0.0034137 0.0145 0.003 0.0034137 0.015 0.003 0.0034137 0.0155 0.003
0.0034137 0.016 0.003 0.0034137 0.0165 0.003 0.0034137 0.017 0.003 0.0034137
0.0175 0.003 0.0034137 0.018 0.003 0.0034137 0.0185 0.003 0.0034137 0.019
0.003 0.0034137 0.0195 0.003 0.0034137 0.02 0.003 0.0034137 0.0205 0.003
0.0034137 0.021 0.003 0.0034137 0.0215 0.003 0.0034137 0.022 0.003 0.0034137
0.0005 0.004 0.0034137 0 0.004 0.0034137 0.001 0.004 0.0034137 0.0015
0.004 0.0034137 0.002 0.004 0.0034137 0.0025 0.004 0.0034137 0.003 0.004
0.0034137 0.0035 0.004 0.0034137 0.004 0.004 0.0034137 0.0045 0.004 0.0034137
0.005 0.004 0.0034137 0.0055 0.004 0.0034137 0.006 0.004 0.0034137 0.0065
0.004 0.0034137 0.007 0.004 0.0034137 0.0075 0.004 0.0034137 0.008 0.004
0.0034137 0.0085 0.004 0.0034137 0.009 0.004 0.0034137 0.0095 0.004 0.0034137
0.01 0.004 0.0034137 0.0105 0.004 0.0034137 0.011 0.004 0.0034137 0.0115
0.004 0.0034137 0.012 0.004 0.0034137 0.0125 0.004 0.0034137 0.013 0.004
0.0034137 0.0135 0.004 0.0034137 0.014 0.004 0.0034137 0.0145 0.004 0.0034137
0.015 0.004 0.0034137 0.0155 0.004 0.0034137 0.016 0.004 0.0034137 0.0165
0.004 0.0034137 0.017 0.004 0.0034137 0.0175 0.004 0.0034137 0.018 0.004
0.0034137 0.0185 0.004 0.0034137 0.019 0.004 0.0034137 0.0195 0.004 0.0034137
0.02 0.004 0.0034137 0.0205 0.004 0.0034137 0.021 0.004 0.0034137 0.0215
0.004 0.0034137 0.022 0.004 0.0034137 0.0005 0.005 0.0034137 0 0.005
0.0034137 0.001 0.005 0.0034137 0.0015 0.005 0.0034137 0.002 0.005 0.0034137
0.0025 0.005 0.0034137 0.003 0.005 0.0034137 0.0035 0.005 0.0034137 0.004
0.005 0.0034137 0.0045 0.005 0.0034137 0.005 0.005 0.0034137 0.0055 0.005
0.0034137 0.006 0.005 0.0034137 0.0065 0.005 0.0034137 0.007 0.005 0.0034137
0.0075 0.005 0.0034137 0.008 0.005 0.0034137 0.0085 0.005 0.0034137 0.009
0.005 0.0034137 0.0095 0.005 0.0034137 0.01 0.005 0.0034137 0.0105 0.005
0.0034137 0.011 0.005 0.0034137 0.0115 0.005 0.0034137 0.012 0.005 0.0034137
0.0125 0.005 0.0034137 0.013 0.005 0.0034137 0.0135 0.005 0.0034137 0.014
0.005 0.0034137 0.0145 0.005 0.0034137 0.015 0.005 0.0034137 0.0155 0.005
0.0034137 0.016 0.005 0.0034137 0.0165 0.005 0.0034137 0.017 0.005 0.0034137
0.0175 0.005 0.0034137 0.018 0.005 0.0034137 0.0185 0.005 0.0034137 0.019
0.005 0.0034137 0.0195 0.005 0.0034137 0.02 0.005 0.0034137 0.0205 0.005
0.0034137 0.021 0.005 0.0034137 0.0215 0.005 0.0034137 0.022 0.005 0.0034137
0.0005 0.006 0.0034137 0 0.006 0.0034137 0.001 0.006 0.0034137 0.0015
0.006 0.0034137 0.002 0.006 0.0034137 0.0025 0.006 0.0034137 0.003 0.006
0.0034137 0.0035 0.006 0.0034137 0.004 0.006 0.0034137 0.0045 0.006 0.0034137
0.005 0.006 0.0034137 0.0055 0.006 0.0034137 0.006 0.006 0.0034137 0.0065
0.006 0.0034137 0.007 0.006 0.0034137 0.0075 0.006 0.0034137 0.008 0.006
0.0034137 0.0085 0.006 0.0034137 0.009 0.006 0.0034137 0.0095 0.006 0.0034137
0.01 0.006 0.0034137 0.0105 0.006 0.0034137 0.011 0.006 0.0034137 0.0115
0.006 0.0034137 0.012 0.006 0.0034137 0.0125 0.006 0.0034137 0.013 0.006
0.0034137 0.0135 0.006 0.0034137 0.014 0.006 0.0034137 0.0145 0.006 0.0034137
0.015 0.006 0.0034137 0.0155 0.006 0.0034137 0.016 0.006 0.0034137 0.0165
0.006 0.0034137 0.017 0.006 0.0034137 0.0175 0.006 0.0034137 0.018 0.006
0.0034137 0.0185 0.006 0.0034137 0.019 0.006 0.0034137 0.0195 0.006 0.0034137
0.02 0.006 0.0034137 0.0205 0.006 0.0034137 0.021 0.006 0.0034137 0.0215
0.006 0.0034137 0.022 0.006 0.0034137 0.0005 0.007 0.0034137 0 0.007
0.0034137 0.001 0.007 0.0034137 0.0015 0.007 0.0034137 0.002 0.007 0.0034137
0.0025 0.007 0.0034137 0.003 0.007 0.0034137 0.0035 0.007 0.0034137 0.004
0.007 0.0034137 0.0045 0.007 0.0034137 0.005 0.007 0.0034137 0.0055 0.007
0.0034137 0.006 0.007 0.0034137 0.0065 0.007 0.0034137 0.007 0.007 0.0034137
0.0075 0.007 0.0034137 0.008 0.007 0.0034137 0.0085 0.007 0.0034137 0.009
0.007 0.0034137 0.0095 0.007 0.0034137 0.01 0.007 0.0034137 0.0105 0.007
0.0034137 0.011 0.007 0.0034137 0.0115 0.007 0.0034137 0.012 0.007 0.0034137
0.0125 0.007 0.0034137 0.013 0.007 0.0034137 0.0135 0.007 0.0034137 0.014
0.007 0.0034137 0.0145 0.007 0.0034137 0.015 0.007 0.0034137 0.0155 0.007
0.0034137 0.016 0.007 0.0034137 0.0165 0.007 0.0034137 0.017 0.007 0.0034137
0.0175 0.007 0.0034137 0.018 0.007 0.0034137 0.0185 0.007 0.0034137 0.019
0.007 0.0034137 0.0195 0.007 0.0034137 0.02 0.007 0.0034137 0.0205 0.007
0.0034137 0.021 0.007 0.0034137 0.0215 0.007 0.0034137 0.022 0.007 0.0034137
0.0005 0.008 0.0034137 0 0.008 0.0034137 0.001 0.008 0.0034137 0.0015
0.008 0.0034137 0.002 0.008 0.0034137 0.0025 0.008 0.0034137 0.003 0.008
0.0034137 0.0035 0.008 0.0034137 0.004 0.008 0.0034137 0.0045 0.008 0.0034137
0.005 0.008 0.0034137 0.0055 0.008 0.0034137 0.006 0.008 0.0034137 0.0065
0.008 0.0034137 0.007 0.008 0.0034137 0.0075 0.008 0.0034137 0.008 0.008
0.0034137 0.0085 0.008 0.0034137 0.009 0.008 0.0034137 0.0095 0.008 0.0034137
0.01 0.008 0.0034137 0.0105 0.008 0.0034137 0.011 0.008 0.0034137 0.0115
0.008 0.0034137 0.012 0.008 0.0034137 0.0125 0.008 0.0034137 0.013 0.008
0.0034137 0.0135 0.008 0.0034137 0.014 0.008 0.0034137 0.0145 0.008 0.0034137
0.015 0.008 0.0034137 0.0155 0.008 0.0034137 0.016 0.008 0.0034137 0.0165
0.008 0.0034137 0.017 0.008 0.0034137 0.0175 0.008 0.0034137 0.018 0.008
0.0034137 0.0185 0.008 0.0034137 0.019 0.008 0.0034137 0.0195 0.008 0.0034137
0.02 0.008 0.0034137 0.0205 0.008 0.0034137 0.021 0.008 0.0034137 0.0215
0.008 0.0034137 0.022 0.008 0.0034137 0.0005 0.009 0.0034137 0 0.009
0.0034137 0.001 0.009 0.0034137 0.0015 0.009 0.0034137 0.002 0.009 0.0034137
0.0025 0.009 0.0034137 0.003 0.009 0.0034137 0.0035 0.009 0.0034137 0.004
0.009 0.0034137 0.0045 0.009 0.0034137 0.005 0.009 0.0034137 0.0055 0.009
0.0034137 0.006 0.009 0.0034137 0.0065 0.009 0.0034137 0.007 0.009 0.0034137
0.0075 0.009 0.0034137 0.008 0.009 0.0034137 0.0085 0.009 0.0034137 0.009
0.009 0.0034137 0.0095 0.009 0.0034137 0.01 0.009 0.0034137 0.0105 0.009
0.0034137 0.011 0.009 0.0034137 0.0115 0.009 0.0034137 0.012 0.009 0.0034137
0.0125 0.009 0.0034137 0.013 0.009 0.0034137 0.0135 0.009 0.0034137 0.014
0.009 0.0034137 0.0145 0.009 0.0034137 0.015 0.009 0.0034137 0.0155 0.009
0.0034137 0.016 0.009 0.0034137 0.0165 0.009 0.0034137 0.017 0.009 0.0034137
0.0175 0.009 0.0034137 0.018 0.009 0.0034137 0.0185 0.009 0.0034137 0.019
0.009 0.0034137 0.0195 0.009 0.0034137 0.02 0.009 0.0034137 0.0205 0.009
0.0034137 0.021 0.009 0.0034137 0.0215 0.009 0.0034137 0.022 0.009 0.0034137
[...]
CELL_DATA 968
FIELD attributes 16
patchID 1 968 float
5 5 5 5 5 5 5 5 5 5 5
5 5 5 5 5 5 5 5 5 5
5 5 5 5 5 5 5 5 5 5
5 5 5 5 5 5 5 5 5 5
5 5 5 5 5 5 5 5 5 5
5 5 5 5 5 5 5 5 5 5
5 5 5 5 5 5 5 5 5 5
5 5 5 5 5 5 5 5 5 5
5 5 5 5 5 5 5 5 5 5
5 5 5 5 5 5 5 5 5 5
5 5 5 5 5 5 5 5 5 5
5 5 5 5 5 5 5 5 5 5
5 5 5 5 5 5 5 5 5 5
5 5 5 5 5 5 5 5 5 5
5 5 5 5 5 5 5 5 5 5
5 5 5 5 5 5 5 5 5 5
5 5 5 5 5 5 5 5 5 5
5 5 5 5 5 5 5 5 5 5
5 5 5 5 5 5 5 5 5 5
5 5 5 5 5 5 5 5 5 5
5 5 5 5 5 5 5 5 5 5
5 5 5 5 5 5 5 5 5 5
5 5 5 5 5 5 5 5 5 5
5 5 5 5 5 5 5 5 5 5
5 5 5 5 5 5 5 5 5 5
5 5 5 5 5 5 5 5 5 5
5 5 5 5 5 5 5 5 5 5
5 5 5 5 5 5 5 5 5 5
5 5 5 5 5 5 5 5 5 5
5 5 5 5 5 5 5 5 5 5
5 5 5 5 5 5 5 5 5 5
5 5 5 5 5 5 5 5 5 5
5 5 5 5 5 5 5 5 5 5
5 5 5 5 5 5 5 5 5 5
5 5 5 5 5 5 5 5 5 5
5 5 5 5 5 5 5 5 5 5
5 5 5 5 5 5 5 5 5 5
5 5 5 5 5 5 5 5 5 5
5 5 5 5 5 5 5 5 5 5
5 5 5 5 5 5 5 5 5 5
5 5 5 5 5 5 5 5 5 5
5 5 5 5 5 5 5 5 5 5
5 5 5 5 5 5 5 5 5 5
5 5 5 5 5 5 5 5 5 5
5 5 5 5 5 5 5 5 5 5
5 5 5 5 5 5 5 5 5 5
5 5 5 5 5 5 5 5 5 5
5 5 5 5 5 5 5 5 5 5
5 5 5 5 5 5 5 5 5 5
5 5 5 5 5 5 5 5 5 5
5 5 5 5 5 5 5 5 5 5
5 5 5 5 5 5 5 5 5 5
5 5 5 5 5 5 5 5 5 5
5 5 5 5 5 5 5 5 5 5
5 5 5 5 5 5 5 5 5 5
5 5 5 5 5 5 5 5 5 5
5 5 5 5 5 5 5 5 5 5
5 5 5 5 5 5 5 5 5 5
5 5 5 5 5 5 5 5 5 5
5 5 5 5 5 5 5 5 5 5
5 5 5 5 5 5 5 5 5 5
5 5 5 5 5 5 5 5 5 5
5 5 5 5 5 5 5 5 5 5
5 5 5 5 5 5 5 5 5 5
5 5 5 5 5 5 5 5 5 5
5 5 5 5 5 5 5 5 5 5
5 5 5 5 5 5 5 5 5 5
5 5 5 5 5 5 5 5 5 5
5 5 5 5 5 5 5 5 5 5
5 5 5 5 5 5 5 5 5 5
5 5 5 5 5 5 5 5 5 5
5 5 5 5 5 5 5 5 5 5
5 5 5 5 5 5 5 5 5 5
5 5 5 5 5 5 5 5 5 5
5 5 5 5 5 5 5 5 5 5
5 5 5 5 5 5 5 5 5 5
5 5 5 5 5 5 5 5 5 5
5 5 5 5 5 5 5 5 5 5
5 5 5 5 5 5 5 5 5 5
5 5 5 5 5 5 5 5 5 5
5 5 5 5 5 5 5 5 5 5
5 5 5 5 5 5 5 5 5 5
5 5 5 5 5 5 5 5 5 5
5 5 5 5 5 5 5 5 5 5
5 5 5 5 5 5 5 5 5 5
5 5 5 5 5 5 5 5 5 5
5 5 5 5 5 5 5 5 5 5
5 5 5 5 5 5 5 5 5 5
5 5 5 5 5 5 5 5 5 5
5 5 5 5 5 5 5 5 5 5
5 5 5 5 5 5 5 5 5 5
5 5 5 5 5 5 5 5 5 5
5 5 5 5 5 5 5 5 5 5
5 5 5 5 5 5 5 5 5 5
5 5 5 5 5 5 5 5 5 5
5 5 5 5 5 5 5 5 5 5
5 5 5 5 5 5 5 
YH2Oair 1 968 float
0.151639 0.151731 0.151863 0.151971 0.15193 0.151926 0.151767 0.151775 0.151797 0.151745 0.151709
0.151737 0.151675 0.151687 0.151725 0.15166 0.151656 0.151701 0.151657 0.151651 0.151694
0.151643 0.151646 0.151696 0.151652 0.151656 0.151699 0.151652 0.151659 0.151727 0.151688
0.151675 0.151738 0.151713 0.151747 0.151796 0.151774 0.151766 0.151926 0.151928 0.15197
0.151862 0.15173 0.151637 0.151559 0.151689 0.15139 0.151325 0.151376 0.15131 0.151505
0.151449 0.151218 0.151193 0.151211 0.151159 0.151404 0.151382 0.151166 0.151146 0.151151
0.151144 0.151376 0.151365 0.151144 0.151144 0.151146 0.151145 0.151366 0.151374 0.151142
0.151149 0.151146 0.151166 0.151382 0.151404 0.151159 0.151212 0.151193 0.151218 0.151449
0.151505 0.15131 0.151375 0.151325 0.15139 0.151689 0.151558 0.151362 0.151123 0.150941
0.150995 0.151093 0.150974 0.151307 0.151146 0.150914 0.150945 0.150972 0.150898 0.1512
0.151148 0.150899 0.150937 0.150939 0.150889 0.15116 0.151151 0.150889 0.150937 0.150938
0.15089 0.151152 0.151159 0.150888 0.150937 0.150936 0.1509 0.151148 0.1512 0.150899
0.150973 0.150945 0.150914 0.151146 0.151307 0.150974 0.151092 0.150994 0.150941 0.151122
0.151362 0.151264 0.151066 0.150903 0.150988 0.151135 0.15101 0.151273 0.151169 0.150956
0.151009 0.151039 0.150971 0.15124 0.151187 0.150961 0.151017 0.151019 0.150957 0.151209
0.151197 0.150956 0.151022 0.151021 0.150956 0.151197 0.151208 0.150956 0.151018 0.151017
0.150961 0.151187 0.151242 0.150971 0.151039 0.15101 0.150956 0.151169 0.151273 0.15101
0.151136 0.150988 0.150902 0.151066 0.151263 0.151327 0.151133 0.15096 0.151056 0.151241
0.151106 0.151402 0.151248 0.151033 0.151098 0.151139 0.151068 0.151348 0.151281 0.151052
0.151115 0.151118 0.151049 0.151305 0.1513 0.15105 0.151121 0.15112 0.15105 0.1513
0.151304 0.151049 0.151117 0.151115 0.151053 0.151282 0.151349 0.151068 0.15114 0.151099
0.151034 0.151248 0.151402 0.151106 0.151241 0.151056 0.15096 0.151133 0.151327 0.151433
0.151207 0.151036 0.151142 0.151343 0.151229 0.151485 0.151319 0.151118 0.151196 0.151245
0.151174 0.151435 0.151371 0.151151 0.151217 0.15122 0.15115 0.151391 0.151391 0.151153
0.151222 0.151222 0.151153 0.151391 0.15139 0.151149 0.15122 0.151218 0.151152 0.151372
0.151437 0.151174 0.151247 0.151195 0.151118 0.151319 0.151485 0.151229 0.151343 0.151141
0.151035 0.151205 0.151431 0.151518 0.151275 0.151123 0.151221 0.151427 0.151341 0.15157
0.151384 0.1512 0.151284 0.151338 0.151264 0.151524 0.151461 0.151243 0.151308 0.151312
0.15124 0.151478 0.151483 0.151248 0.151312 0.151312 0.151247 0.151482 0.151479 0.151239
0.15131 0.151308 0.151245 0.151463 0.151523 0.151263 0.151339 0.151283 0.151199 0.151384
0.151569 0.151341 0.151427 0.151221 0.151123 0.151274 0.151517 0.151605 0.151338 0.15121
0.151299 0.1515 0.15144 0.151661 0.151459 0.151283 0.151367 0.151424 0.15135 0.151614
0.151547 0.151328 0.15139 0.151393 0.151322 0.151565 0.15157 0.151335 0.151393 0.151394
0.151334 0.151569 0.151565 0.151322 0.151392 0.15139 0.15133 0.151549 0.151613 0.151349
0.151424 0.151367 0.151283 0.151458 0.15166 0.151441 0.1515 0.151299 0.15121 0.151338
0.151605 0.151696 0.151402 0.151295 0.151374 0.151564 0.151527 0.151744 0.151535 0.151359
0.151442 0.151497 0.15143 0.151704 0.151626 0.151403 0.151464 0.15147 0.151399 0.151654
0.151654 0.151414 0.151469 0.15147 0.151414 0.151653 0.151655 0.151401 0.15147 0.151464
0.151405 0.151629 0.151704 0.151429 0.151498 0.151442 0.151359 0.151535 0.151743 0.151528
0.151564 0.151374 0.151294 0.151402 0.151696 0.151789 0.151474 0.151377 0.151448 0.151623
0.15161 0.15182 0.15161 0.151425 0.151512 0.151564 0.151507 0.151784 0.151703 0.151475
0.151535 0.151542 0.151473 0.151738 0.151732 0.151486 0.151539 0.151541 0.151487 0.151731
0.151738 0.151474 0.151541 0.151534 0.151476 0.151705 0.151783 0.151506 0.151564 0.151512
0.151426 0.15161 0.15182 0.151611 0.151624 0.151449 0.151378 0.151475 0.15179 0.151881
0.15156 0.151458 0.151519 0.151677 0.151682 0.151889 0.151685 0.151481 0.151576 0.151625
0.151572 0.151843 0.151782 0.151552 0.151603 0.151607 0.151542 0.151816 0.15181 0.151553
0.151604 0.151607 0.151555 0.15181 0.151816 0.151541 0.151607 0.151603 0.151553 0.151785
0.151844 0.151572 0.151626 0.151576 0.151481 0.151685 0.151889 0.151682 0.151676 0.151518
0.151457 0.151559 0.151879 0.151968 0.15165 0.151533 0.151586 0.151725 0.151741 0.151944
0.151769 0.151545 0.151637 0.151683 0.151627 0.151888 0.15186 0.151636 0.15167 0.151672
0.151611 0.151894 0.151883 0.151615 0.151667 0.15167 0.151617 0.151883 0.151893 0.151608
0.15167 0.151669 0.151637 0.151862 0.151888 0.151627 0.151684 0.151636 0.151545 0.15177
0.151944 0.15174 0.151725 0.151585 0.151532 0.151649 0.151967 0.152053 0.15174 0.151605
0.151653 0.151774 0.151786 0.151983 0.151862 0.151639 0.151703 0.151741 0.15168 0.15193
0.151933 0.151723 0.151736 0.151735 0.151685 0.151966 0.151948 0.151673 0.151726 0.151729
0.151674 0.151947 0.151965 0.151684 0.151734 0.151736 0.151725 0.151935 0.15193 0.15168
0.151742 0.151703 0.151641 0.151863 0.151983 0.151786 0.151774 0.151652 0.151605 0.151739
0.152052 0.152136 0.151827 0.151676 0.151719 0.151821 0.151816 0.152001 0.151949 0.151762
0.151776 0.151796 0.151735 0.151981 0.152006 0.151813 0.151802 0.151797 0.151763 0.152038
0.152018 0.151739 0.151787 0.151788 0.151739 0.152017 0.152037 0.151764 0.151797 0.151802
0.151816 0.152007 0.151979 0.151734 0.151797 0.151776 0.151763 0.151949 0.152 0.151816
0.15182 0.151719 0.151675 0.151826 0.152135 0.152217 0.151923 0.151761 0.151793 0.151868
0.151844 0.152019 0.152023 0.15189 0.151855 0.151851 0.151796 0.152047 0.152083 0.151903
0.151867 0.151857 0.151838 0.15211 0.152091 0.151817 0.151846 0.151847 0.151816 0.152089
0.152109 0.151838 0.151856 0.151868 0.151907 0.152082 0.152041 0.151792 0.15185 0.151855
0.151891 0.152024 0.152019 0.151844 0.151868 0.151795 0.151763 0.151924 0.152218 0.152302
0.152026 0.151857 0.151868 0.151912 0.15188 0.152058 0.152094 0.151998 0.151924 0.151904
0.151861 0.152121 0.152163 0.151976 0.151925 0.151912 0.151911 0.152187 0.152168 0.151888
0.1519 0.151901 0.151887 0.152167 0.152186 0.151911 0.151912 0.151926 0.151981 0.152163
0.152116 0.151857 0.151904 0.151925 0.151998 0.152095 0.152058 0.15188 0.151911 0.151867
0.151856 0.152025 0.1523 0.152388 0.152131 0.151957 0.151939 0.151965 0.15194 0.15212
0.152166 0.152083 0.151993 0.151967 0.15195 0.152202 0.152237 0.152035 0.151978 0.151972
0.151995 0.152264 0.152243 0.151952 0.151953 0.151954 0.151951 0.152241 0.152263 0.151994
0.151971 0.15198 0.15204 0.152238 0.152197 0.151943 0.151966 0.151993 0.152082 0.152166
0.15212 0.151939 0.151965 0.151938 0.151957 0.15213 0.152387 0.152482 0.152242 0.152057
0.152007 0.152024 0.152023 0.152201 0.152245 0.152152 0.152058 0.152037 0.152058 0.152285
0.152299 0.152084 0.152028 0.152031 0.152076 0.152343 0.152315 0.152011 0.152002 0.152002
0.152011 0.152312 0.152341 0.152077 0.152032 0.152031 0.15209 0.152302 0.15228 0.15205
0.152034 0.152056 0.152149 0.152245 0.152202 0.152024 0.152024 0.152007 0.152056 0.152241
0.152481 0.152582 0.152355 0.152175 0.152097 0.152106 0.152133 0.152284 0.152322 0.152228
0.152135 0.152129 0.152191 0.15236 0.152348 0.152138 0.152094 0.152112 0.152176 0.152418
0.152393 0.152094 0.152075 0.152075 0.152093 0.15239 0.152416 0.15218 0.152113 0.152096
0.152145 0.152352 0.152356 0.152182 0.152126 0.152133 0.152224 0.152322 0.152285 0.152135
0.152106 0.152096 0.152174 0.152354 0.152581 0.152696 0.152501 0.152331 0.152212 0.152213
0.152277 0.152381 0.152406 0.152326 0.152235 0.152248 0.152346 0.152448 0.152425 0.152224
0.152175 0.15221 0.152304 0.152504 0.152484 0.152232 0.152171 0.152169 0.152231 0.152481
0.152502 0.152308 0.152211 0.152179 0.152235 0.152429 0.152444 0.152336 0.152242 0.152232
0.152323 0.152405 0.152381 0.15228 0.152215 0.152212 0.15233 0.152502 0.152696 0.152833
0.152654 0.152508 0.152362 0.152353 0.152453 0.152471 0.15247 0.152428 0.152354 0.152384
0.152519 0.152524 0.152483 0.152333 0.152291 0.152329 0.152444 0.152576 0.152566 0.152409
0.152302 0.152299 0.152407 0.152564 0.152575 0.152451 0.152332 0.152296 0.152346 0.152489
0.152523 0.152512 0.152381 0.152353 0.152423 0.152468 0.152471 0.152456 0.152353 0.15236
0.152504 0.152651 0.15283 0.152966 0.152905 0.15293 0.152733 0.15271 0.152726 0.152548
0.152574 0.152708 0.152689 0.152737 0.152776 0.152593 0.152592 0.152685 0.152624 0.152664
0.152771 0.152674 0.152675 0.152765 0.152648 0.152646 0.152762 0.152672 0.152672 0.152772
0.152667 0.15263 0.152691 0.152596 0.152595 0.152773 0.152734 0.152687 0.152704 0.152573
0.152548 0.152727 0.152711 0.152731 0.152927 0.152903 0.152965 
XH2Oair 1 968 float
0.222569 0.222692 0.222866 0.22301 0.222955 0.22295 0.222738 0.22275 0.222779 0.222711 0.222662
0.222699 0.222616 0.222632 0.222684 0.222597 0.222593 0.222651 0.222594 0.222585 0.222643
0.222575 0.222579 0.222645 0.222587 0.222592 0.222649 0.222587 0.222596 0.222686 0.222634
0.222618 0.2227 0.222667 0.222713 0.222778 0.222749 0.222738 0.222949 0.222953 0.223008
0.222865 0.22269 0.222567 0.222463 0.222636 0.222239 0.222154 0.222221 0.222133 0.222392
0.222318 0.222012 0.221977 0.222002 0.221932 0.222258 0.222228 0.221943 0.221916 0.221922
0.221913 0.222221 0.222206 0.221913 0.221913 0.221915 0.221915 0.222208 0.222218 0.22191
0.22192 0.221916 0.221942 0.222228 0.222258 0.221933 0.222004 0.221979 0.222011 0.222317
0.222391 0.222133 0.22222 0.222153 0.222239 0.222636 0.222463 0.222202 0.221886 0.221644
0.221715 0.221845 0.221688 0.222129 0.221916 0.221609 0.221649 0.221685 0.221587 0.221987
0.221919 0.221589 0.221639 0.221641 0.221575 0.221935 0.221922 0.221575 0.221639 0.221639
0.221576 0.221923 0.221933 0.221573 0.221639 0.221638 0.221589 0.221919 0.221988 0.221588
0.221687 0.221649 0.221608 0.221916 0.222129 0.221688 0.221845 0.221715 0.221643 0.221885
0.222202 0.222072 0.22181 0.221593 0.221707 0.221901 0.221735 0.222084 0.221946 0.221664
0.221735 0.221774 0.221683 0.222041 0.22197 0.221671 0.221744 0.221747 0.221665 0.221999
0.221983 0.221664 0.221751 0.22175 0.221664 0.221984 0.221997 0.221664 0.221747 0.221744
0.221671 0.22197 0.222043 0.221684 0.221774 0.221735 0.221664 0.221946 0.222084 0.221735
0.221902 0.221706 0.221592 0.22181 0.222072 0.222155 0.221898 0.221669 0.221796 0.222041
0.221863 0.222255 0.222051 0.221766 0.221852 0.221906 0.221813 0.222184 0.222095 0.221791
0.221875 0.221879 0.221788 0.222127 0.22212 0.221788 0.221882 0.221882 0.221788 0.22212
0.222125 0.221787 0.221877 0.221875 0.221792 0.222096 0.222185 0.221813 0.221908 0.221853
0.221767 0.222052 0.222255 0.221863 0.222042 0.221797 0.221669 0.221899 0.222156 0.222296
0.221996 0.22177 0.22191 0.222177 0.222026 0.222365 0.222145 0.221879 0.221981 0.222047
0.221952 0.222299 0.222214 0.221923 0.22201 0.222014 0.22192 0.22224 0.222241 0.221925
0.222016 0.222016 0.221925 0.22224 0.222239 0.22192 0.222013 0.222011 0.221924 0.222216
0.222301 0.221952 0.222049 0.221981 0.221878 0.222144 0.222365 0.222025 0.222177 0.221908
0.221768 0.221995 0.222293 0.222409 0.222086 0.221885 0.222016 0.222288 0.222174 0.222477
0.222232 0.221987 0.222098 0.222171 0.222072 0.222416 0.222333 0.222045 0.22213 0.222135
0.22204 0.222356 0.222363 0.222051 0.222135 0.222136 0.22205 0.222361 0.222357 0.222039
0.222133 0.222131 0.222047 0.222336 0.222416 0.222071 0.222172 0.222098 0.221986 0.222231
0.222476 0.222174 0.222288 0.222015 0.221885 0.222086 0.222408 0.222525 0.22217 0.222001
0.222119 0.222385 0.222306 0.222598 0.22233 0.222098 0.222208 0.222283 0.222187 0.222536
0.222447 0.222157 0.222239 0.222244 0.222148 0.222471 0.222478 0.222166 0.222243 0.222244
0.222165 0.222476 0.222472 0.222149 0.222242 0.222239 0.222159 0.22245 0.222535 0.222184
0.222284 0.222208 0.222097 0.222329 0.222597 0.222306 0.222385 0.222118 0.222 0.22217
0.222525 0.222645 0.222256 0.222113 0.222218 0.22247 0.222421 0.222708 0.222432 0.222198
0.222308 0.222381 0.222292 0.222655 0.222552 0.222256 0.222337 0.222345 0.222251 0.222589
0.22259 0.22227 0.222343 0.222345 0.222271 0.222587 0.22259 0.222253 0.222345 0.222337
0.222258 0.222556 0.222655 0.222291 0.222382 0.222308 0.222197 0.222431 0.222707 0.222422
0.22247 0.222218 0.222112 0.222255 0.222644 0.222768 0.222351 0.222222 0.222316 0.222548
0.22253 0.222809 0.22253 0.222286 0.222401 0.22247 0.222394 0.222761 0.222654 0.222351
0.22243 0.22244 0.222349 0.2227 0.222693 0.222367 0.222436 0.222439 0.222368 0.222692
0.222701 0.22235 0.222439 0.22243 0.222353 0.222656 0.22276 0.222393 0.22247 0.222401
0.222286 0.222531 0.222809 0.222531 0.222549 0.222317 0.222223 0.222352 0.222769 0.22289
0.222465 0.22233 0.22241 0.222619 0.222626 0.2229 0.22263 0.222359 0.222485 0.22255
0.22248 0.22284 0.222759 0.222454 0.222521 0.222527 0.22244 0.222804 0.222796 0.222455
0.222523 0.222526 0.222457 0.222796 0.222803 0.222439 0.222526 0.222521 0.222455 0.222763
0.222841 0.222481 0.222552 0.222485 0.222359 0.22263 0.2229 0.222626 0.222618 0.222409
0.222328 0.222463 0.222888 0.223006 0.222584 0.222429 0.222498 0.222683 0.222704 0.222974
0.222742 0.222444 0.222566 0.222627 0.222553 0.222899 0.222862 0.222565 0.22261 0.222612
0.222531 0.222907 0.222893 0.222537 0.222606 0.222609 0.222539 0.222893 0.222906 0.222528
0.22261 0.222609 0.222566 0.222864 0.2229 0.222554 0.222628 0.222565 0.222445 0.222743
0.222973 0.222703 0.222683 0.222497 0.222428 0.222583 0.223005 0.223118 0.222703 0.222524
0.222587 0.222748 0.222764 0.223025 0.222865 0.222569 0.222654 0.222704 0.222624 0.222955
0.222959 0.222681 0.222697 0.222696 0.222631 0.223002 0.222978 0.222613 0.222685 0.222687
0.222615 0.222977 0.223001 0.222629 0.222695 0.222697 0.222682 0.222961 0.222955 0.222624
0.222705 0.222654 0.222571 0.222866 0.223024 0.222763 0.222748 0.222586 0.222523 0.222702
0.223117 0.223228 0.222819 0.222618 0.222675 0.222809 0.222804 0.223048 0.22298 0.222732
0.222751 0.222777 0.222697 0.223022 0.223055 0.2228 0.222785 0.222778 0.222733 0.223098
0.223072 0.222701 0.222764 0.222766 0.222701 0.22307 0.223097 0.222734 0.222778 0.222785
0.222804 0.223056 0.22302 0.222695 0.222778 0.222751 0.222734 0.22298 0.223047 0.222803
0.222809 0.222675 0.222617 0.222818 0.223227 0.223335 0.222946 0.222731 0.222774 0.222872
0.222841 0.223073 0.223079 0.222902 0.222854 0.22285 0.222777 0.223109 0.223157 0.222919
0.222871 0.222857 0.222833 0.223194 0.223168 0.222805 0.222843 0.222844 0.222803 0.223166
0.223193 0.222833 0.222856 0.222872 0.222925 0.223156 0.223102 0.222771 0.222848 0.222855
0.222903 0.223079 0.223072 0.222841 0.222872 0.222775 0.222733 0.222947 0.223336 0.223448
0.223083 0.222858 0.222872 0.22293 0.222889 0.223124 0.223172 0.223044 0.222947 0.22292
0.222863 0.223208 0.223264 0.223015 0.222947 0.22293 0.222929 0.223295 0.22327 0.222899
0.222915 0.222916 0.222898 0.223269 0.223294 0.222929 0.22293 0.222949 0.223023 0.223264
0.223201 0.222858 0.22292 0.222947 0.223044 0.223173 0.223124 0.222888 0.222929 0.22287
0.222857 0.223081 0.223445 0.223562 0.223222 0.22299 0.222966 0.223001 0.222967 0.223206
0.223267 0.223157 0.223038 0.223004 0.22298 0.223316 0.223362 0.223093 0.223018 0.22301
0.22304 0.223398 0.223369 0.222983 0.222985 0.222986 0.222983 0.223367 0.223396 0.223039
0.223009 0.22302 0.223101 0.223363 0.223308 0.222972 0.223001 0.223037 0.223156 0.223267
0.223207 0.222967 0.223 0.222965 0.22299 0.223221 0.22356 0.223686 0.223369 0.223122
0.223057 0.223079 0.223078 0.223314 0.223373 0.223248 0.223123 0.223095 0.223124 0.223426
0.223444 0.223158 0.223084 0.223089 0.223148 0.223502 0.223465 0.223061 0.223049 0.22305
0.223062 0.223461 0.2235 0.223149 0.223089 0.223088 0.223166 0.223447 0.223419 0.223113
0.223092 0.223121 0.223245 0.223373 0.223315 0.223079 0.223079 0.223056 0.223122 0.223368
0.223685 0.223819 0.223519 0.223279 0.223175 0.223187 0.223224 0.223423 0.223475 0.223349
0.223226 0.223218 0.2233 0.223524 0.223508 0.223229 0.223171 0.223195 0.223281 0.223602
0.223568 0.223172 0.223146 0.223146 0.22317 0.223565 0.223599 0.223285 0.223196 0.223174
0.22324 0.223515 0.22352 0.223288 0.223213 0.223223 0.223345 0.223474 0.223425 0.223226
0.223187 0.223174 0.223277 0.223517 0.223818 0.22397 0.223713 0.223485 0.223328 0.223329
0.223415 0.223552 0.223586 0.223479 0.223358 0.223375 0.223506 0.223641 0.223611 0.223344
0.223278 0.223324 0.22345 0.223716 0.223689 0.223355 0.223274 0.22327 0.223353 0.223685
0.223713 0.223455 0.223326 0.223284 0.223359 0.223615 0.223636 0.223493 0.223368 0.223354
0.223475 0.223584 0.223552 0.223418 0.223331 0.223328 0.223484 0.223713 0.223971 0.224152
0.223914 0.22372 0.223527 0.223514 0.223648 0.223671 0.22367 0.223613 0.223515 0.223555
0.223734 0.223742 0.223688 0.223488 0.223432 0.223483 0.223635 0.223812 0.223798 0.22359
0.223446 0.223443 0.223586 0.223795 0.22381 0.223644 0.223486 0.223438 0.223505 0.223695
0.223741 0.223726 0.223552 0.223515 0.223607 0.223667 0.223671 0.223651 0.223514 0.223523
0.223715 0.223911 0.224148 0.224329 0.224247 0.224279 0.224018 0.223987 0.224009 0.223774
0.223809 0.223985 0.223959 0.224022 0.224075 0.223834 0.223833 0.223954 0.223873 0.223926
0.224068 0.223942 0.223942 0.22406 0.223905 0.223903 0.224057 0.223938 0.223938 0.22407
0.223929 0.223881 0.223963 0.223838 0.223837 0.224072 0.224019 0.223957 0.22398 0.223807
0.223774 0.224011 0.223988 0.224015 0.224276 0.224245 0.224327 
rho 1 968 float
0.91378 0.913708 0.913565 0.913546 0.913625 0.913554 0.913692 0.913674 0.913607 0.913686 0.913729
0.91363 0.913734 0.913716 0.913644 0.913739 0.913743 0.91365 0.913742 0.913744 0.913658
0.913753 0.91375 0.913658 0.913743 0.913743 0.913652 0.913746 0.91374 0.913643 0.913715
0.913733 0.91363 0.913727 0.913686 0.913607 0.913675 0.913691 0.913553 0.913625 0.913545
0.913564 0.913707 0.91378 0.913637 0.91352 0.913836 0.91396 0.913966 0.913976 0.913817
0.913811 0.914073 0.91414 0.914129 0.914139 0.913891 0.913896 0.914136 0.91419 0.914187
0.914159 0.913911 0.913917 0.914158 0.914197 0.914196 0.914158 0.913916 0.913912 0.91416
0.914189 0.914192 0.914137 0.913896 0.913891 0.914139 0.914131 0.914141 0.914074 0.913811