# vtk DataFile Version 2.0
air_to_electrolyte
ASCII
DATASET POLYDATA
POINTS 1035 float
0.0034137 0 0 0.0034137 0.0005 0 0.0034137 0.0005 0.001 0.0034137 0
0.001 0.0034137 0.001 0 0.0034137 0.001 0.001 0.0034137 0.0015 0
0.0034137 0.0015 0.001 0.0034137 0.002 0 0.0034137 0.002 0.001 0.0034137
0.0025 0 0.0034137 0.0025 0.001 0.0034137 0.003 0 0.0034137 0.003
0.001 0.0034137 0.0035 0 0.0034137 0.0035 0.001 0.0034137 0.004 0
0.0034137 0.004 0.001 0.0034137 0.0045 0 0.0034137 0.0045 0.001 0.0034137
0.005 0 0.0034137 0.005 0.001 0.0034137 0.0055 0 0.0034137 0.0055
0.001 0.0034137 0.006 0 0.0034137 0.006 0.001 0.0034137 0.0065 0
0.0034137 0.0065 0.001 0.0034137 0.007 0 0.0034137 0.007 0.001 0.0034137
0.0075 0 0.0034137 0.0075 0.001 0.0034137 0.008 0 0.0034137 0.008
0.001 0.0034137 0.0085 0 0.0034137 0.0085 0.001 0.0034137 0.009 0
0.0034137 0.009 0.001 0.0034137 0.0095 0 0.0034137 0.0095 0.001 0.0034137
0.01 0 0.0034137 0.01 0.001 0.0034137 0.0105 0 0.0034137 0.0105
0.001 0.0034137 0.011 0 0.0034137 0.011 0.001 0.0034137 0.0115 0
0.0034137 0.0115 0.001 0.0034137 0.012 0 0.0034137 0.012 0.001 0.0034137
0.0125 0 0.0034137 0.0125 0.001 0.0034137 0.013 0 0.0034137 0.013
0.001 0.0034137 0.0135 0 0.0034137 0.0135 0.001 0.0034137 0.014 0
0.0034137 0.014 0.001 0.0034137 0.0145 0 0.0034137 0.0145 0.001 0.0034137
0.015 0 0.0034137 0.015 0.001 0.0034137 0.0155 0 0.0034137 0.0155
0.001 0.0034137 0.016 0 0.0034137 0.016 0.001 0.0034137 0.0165 0
0.0034137 0.0165 0.001 0.0034137 0.017 0 0.0034137 0.017 0.001 0.0034137
0.0175 0 0.0034137 0.0175 0.001 0.0034137 0.018 0 0.0034137 0.018
0.001 0.0034137 0.0185 0 0.0034137 0.0185 0.001 0.0034137 0.019 0
0.0034137 0.019 0.001 0.0034137 0.0195 0 0.0034137 0.0195 0.001 0.0034137
0.02 0 0.0034137 0.02 0.001 0.0034137 0.0205 0 0.0034137 0.0205
0.001 0.0034137 0.021 0 0.0034137 0.021 0.001 0.0034137 0.0215 0
0.0034137 0.0215 0.001 0.0034137 0.022 0 0.0034137 0.022 0.001 0.0034137
0.0005 0.002 0.0034137 0 0.002 0.0034137 0.001 0.002 0.0034137 0.0015
0.002 0.0034137 0.002 0.002 0.0034137 0.0025 0.002 0.0034137 0.003 0.002
0.0034137 0.0035 0.002 0.0034137 0.004 0.002 0.0034137 0.0045 0.002 0.0034137
0.005 0.002 0.0034137 0.0055 0.002 0.0034137 0.006 0.002 0.0034137 0.0065
0.002 0.0034137 0.007 0.002 0.0034137 0.0075 0.002 0.0034137 0.008 0.002
0.0034137 0.0085 0.002 0.0034137 0.009 0.002 0.0034137 0.0095 0.002 0.0034137
0.01 0.002 0.0034137 0.0105 0.002 0.0034137 0.011 0.002 0.0034137 0.0115
0.002 0.0034137 0.012 0.002 0.0034137 0.0125 0.002 0.0034137 0.013 0.002
0.0034137 0.0135 0.002 0.0034137 0.014 0.002 0.0034137 0.0145 0.002 0.0034137
0.015 0.002 0.0034137 0.0155 0.002 0.0034137 0.016 0.002 0.0034137 0.0165
0.002 0.0034137 0.017 0.002 0.0034137 0.0175 0.002 0.0034137 0.018 0.002
0.0034137 0.0185 0.002 0.0034137 0.019 0.002 0.0034137 0.0195 0.002 0.0034137
0.02 0.002 0.0034137 0.0205 0.002 0.0034137 0.021 0.002 0.0034137 0.0215
0.002 0.0034137 0.022 0.002 0.0034137 0.0005 0.003 0.0034137 0 0.003
0.0034137 0.001 0.003 0.0034137 0.0015 0.003 0.0034137 0.002 0.003 0.0034137
0.0025 0.003 0.0034137 0.003 0.003 0.0034137 0.0035 0.003 0.0034137 0.004
0.003 0.0034137 0.0045 0.003 0.0034137 0.005 0.003 0.0034137 0.0055 0.003
0.0034137 0.006 0.003 0.0034137 0.0065 0.003 0.0034137 0.007 0.003 0.0034137
0.0075 0.003 0.0034137 0.008 0.003 0.0034137 0.0085 0.003 0.0034137 0.009
0.003 0.0034137 0.0095 0.003 0.0034137 0.01 0.003 0.0034137 0.0105 0.003
0.0034137 0.011 0.003 0.0034137 0.0115 0.003 0.0034137 0.012 0.003 0.0034137
0.0125 0.003 0.0034137 0.013 0.003 0.0034137 0.0135 0.003 0.0034137 0.014
0.003 0.0034137 0.0145 0.003 0.0034137 0.015 0.003 0.0034137 0.0155 0.003
0.0034137 0.016 0.003 0.0034137 0.0165 0.003 0.0034137 0.017 0.003 0.0034137
0.0175 0.003 0.0034137 0.018 0.003 0.0034137 0.0185 0.003 0.0034137 0.019
0.003 0.0034137 0.0195 0.003 0.0034137 0.02 0.003 0.0034137 0.0205 0.003
0.0034137 0.021 0.003 0.0034137 0.0215 0.003 0.0034137 0.022 0.003 0.0034137
0.0005 0.004 0.0034137 0 0.004 0.0034137 0.001 0.004 0.0034137 0.0015
0.004 0.0034137 0.002 0.004 0.0034137 0.0025 0.004 0.0034137 0.003 0.004
0.0034137 0.0035 0.004 0.0034137 0.004 0.004 0.0034137 0.0045 0.004 0.0034137
0.005 0.004 0.0034137 0.0055 0.004 0.0034137 0.006 0.004 0.0034137 0.0065
0.004 0.0034137 0.007 0.004 0.0034137 0.0075 0.004 0.0034137 0.008 0.004
0.0034137 0.0085 0.004 0.0034137 0.009 0.004 0.0034137 0.0095 0.004 0.0034137
0.01 0.004 0.0034137 0.0105 0.004 0.0034137 0.011 0.004 0.0034137 0.0115
0.004 0.0034137 0.012 0.004 0.0034137 0.0125 0.004 0.0034137 0.013 0.004
0.0034137 0.0135 0.004 0.0034137 0.014 0.004 0.0034137 0.0145 0.004 0.0034137
0.015 0.004 0.0034137 0.0155 0.004 0.0034137 0.016 0.004 0.0034137 0.0165
0.004 0.0034137 0.017 0.004 0.0034137 0.0175 0.004 0.0034137 0.018 0.004
0.0034137 0.0185 0.004 0.0034137 0.019 0.004 0.0034137 0.0195 0.004 0.0034137
0.02 0.004 0.0034137 0.0205 0.004 0.0034137 0.021 0.004 0.0034137 0.0215
0.004 0.0034137 0.022 0.004 0.0034137 0.0005 0.005 0.0034137 0 0.005
0.0034137 0.001 0.005 0.0034137 0.0015 0.005 0.0034137 0.002 0.005 0.0034137
0.0025 0.005 0.0034137 0.003 0.005 0.0034137 0.0035 0.005 0.0034137 0.004
0.005 0.0034137 0.0045 0.005 0.0034137 0.005 0.005 0.0034137 0.0055 0.005
0.0034137 0.006 0.005 0.0034137 0.0065 0.005 0.0034137 0.007 0.005 0.0034137
0.0075 0.005 0.0034137 0.008 0.005 0.0034137 0.0085 0.005 0.0034137 0.009
0.005 0.0034137 0.0095 0.005 0.0034137 0.01 0.005 0.0034137 0.0105 0.005
0.0034137 0.011 0.005 0.0034137 0.0115 0.005 0.0034137 0.012 0.005 0.0034137
0.0125 0.005 0.0034137 0.013 0.005 0.0034137 0.0135 0.005 0.0034137 0.014
0.005 0.0034137 0.0145 0.005 0.0034137 0.015 0.005 0.0034137 0.0155 0.005
0.0034137 0.016 0.005 0.0034137 0.0165 0.005 0.0034137 0.017 0.005 0.0034137
0.0175 0.005 0.0034137 0.018 0.005 0.0034137 0.0185 0.005 0.0034137 0.019
0.005 0.0034137 0.0195 0.005 0.0034137 0.02 0.005 0.0034137 0.0205 0.005
0.0034137 0.021 0.005 0.0034137 0.0215 0.005 0.0034137 0.022 0.005 0.0034137
0.0005 0.006 0.0034137 0 0.006 0.0034137 0.001 0.006 0.0034137 0.0015
0.006 0.0034137 0.002 0.006 0.0034137 0.0025 0.006 0.0034137 0.003 0.006
0.0034137 0.0035 0.006 0.0034137 0.004 0.006 0.0034137 0.0045 0.006 0.0034137
0.005 0.006 0.0034137 0.0055 0.006 0.0034137 0.006 0.006 0.0034137 0.0065
0.006 0.0034137 0.007 0.006 0.0034137 0.0075 0.006 0.0034137 0.008 0.006
0.0034137 0.0085 0.006 0.0034137 0.009 0.006 0.0034137 0.0095 0.006 0.0034137
0.01 0.006 0.0034137 0.0105 0.006 0.0034137 0.011 0.006 0.0034137 0.0115
0.006 0.0034137 0.012 0.006 0.0034137 0.0125 0.006 0.0034137 0.013 0.006
0.0034137 0.0135 0.006 0.0034137 0.014 0.006 0.0034137 0.0145 0.006 0.0034137
0.015 0.006 0.0034137 0.0155 0.006 0.0034137 0.016 0.006 0.0034137 0.0165
0.006 0.0034137 0.017 0.006 0.0034137 0.0175 0.006 0.0034137 0.018 0.006
0.0034137 0.0185 0.006 0.0034137 0.019 0.006 0.0034137 0.0195 0.006 0.0034137
0.02 0.006 0.0034137 0.0205 0.006 0.0034137 0.021 0.006 0.0034137 0.0215
0.006 0.0034137 0.022 0.006 0.0034137 0.0005 0.007 0.0034137 0 0.007
0.0034137 0.001 0.007 0.0034137 0.0015 0.007 0.0034137 0.002 0.007 0.0034137
0.0025 0.007 0.0034137 0.003 0.007 0.0034137 0.0035 0.007 0.0034137 0.004
0.007 0.0034137 0.0045 0.007 0.0034137 0.005 0.007 0.0034137 0.0055 0.007
0.0034137 0.006 0.007 0.0034137 0.0065 0.007 0.0034137 0.007 0.007 0.0034137
0.0075 0.007 0.0034137 0.008 0.007 0.0034137 0.0085 0.007 0.0034137 0.009
0.007 0.0034137 0.0095 0.007 0.0034137 0.01 0.007 0.0034137 0.0105 0.007
0.0034137 0.011 0.007 0.0034137 0.0115 0.007 0.0034137 0.012 0.007 0.0034137
0.0125 0.007 0.0034137 0.013 0.007 0.0034137 0.0135 0.007 0.0034137 0.014
0.007 0.0034137 0.0145 0.007 0.0034137 0.015 0.007 0.0034137 0.0155 0.007
0.0034137 0.016 0.007 0.0034137 0.0165 0.007 0.0034137 0.017 0.007 0.0034137
0.0175 0.007 0.0034137 0.018 0.007 0.0034137 0.0185 0.007 0.0034137 0.019
0.007 0.0034137 0.0195 0.007 0.0034137 0.02 0.007 0.0034137 0.0205 0.007
0.0034137 0.021 0.007 0.0034137 0.0215 0.007 0.0034137 0.022 0.007 0.0034137
0.0005 0.008 0.0034137 0 0.008 0.0034137 0.001 0.008 0.0034137 0.0015
0.008 0.0034137 0.002 0.008 0.0034137 0.0025 0.008 0.0034137 0.003 0.008
0.0034137 0.0035 0.008 0.0034137 0.004 0.008 0.0034137 0.0045 0.008 0.0034137
0.005 0.008 0.0034137 0.0055 0.008 0.0034137 0.006 0.008 0.0034137 0.0065
0.008 0.0034137 0.007 0.008 0.0034137 0.0075 0.008 0.0034137 0.008 0.008
0.0034137 0.0085 0.008 0.0034137 0.009 0.008 0.0034137 0.0095 0.008 0.0034137
0.01 0.008 0.0034137 0.0105 0.008 0.0034137 0.011 0.008 0.0034137 0.0115
0.008 0.0034137 0.012 0.008 0.0034137 0.0125 0.008 0.0034137 0.013 0.008
0.0034137 0.0135 0.008 0.0034137 0.014 0.008 0.0034137 0.0145 0.008 0.0034137
0.015 0.008 0.0034137 0.0155 0.008 0.0034137 0.016 0.008 0.0034137 0.0165
0.008 0.0034137 0.017 0.008 0.0034137 0.0175 0.008 0.0034137 0.018 0.008
0.0034137 0.0185 0.008 0.0034137 0.019 0.008 0.0034137 0.0195 0.008 0.0034137
0.02 0.008 0.0034137 0.0205 0.008 0.0034137 0.021 0.008 0.0034137 0.0215
0.008 0.0034137 0.022 0.008 0.0034137 0.0005 0.009 0.0034137 0 0.009
0.0034137 0.001 0.009 0.0034137 0.0015 0.009 0.0034137 0.002 0.009 0.0034137
0.0025 0.009 0.0034137 0.003 0.009 0.0034137 0.0035 0.009 0.0034137 0.004
0.009 0.0034137 0.0045 0.009 0.0034137 0.005 0.009 0.0034137 0.0055 0.009
0.0034137 0.006 0.009 0.0034137 0.0065 0.009 0.0034137 0.007 0.009 0.0034137
0.0075 0.009 0.0034137 0.008 0.009 0.0034137 0.0085 0.009 0.0034137 0.009
0.009 0.0034137 0.0095 0.009 0.0034137 0.01 0.009 0.0034137 0.0105 0.009
0.0034137 0.011 0.009 0.0034137 0.0115 0.009 0.0034137 0.012 0.009 0.0034137
0.0125 0.009 0.0034137 0.013 0.009 0.0034137 0.0135 0.009 0.0034137 0.014
0.009 0.0034137 0.0145 0.009 0.0034137 0.015 0.009 0.0034137 0.0155 0.009
0.0034137 0.016 0.009 0.0034137 0.0165 0.009 0.0034137 0.017 0.009 0.0034137
0.0175 0.009 0.0034137 0.018 0.009 0.0034137 0.0185 0.009 0.0034137 0.019
0.009 0.0034137 0.0195 0.009 0.0034137 0.02 0.009 0.0034137 0.0205 0.009
0.0034137 0.021 0.009 0.0034137 0.0215 0.009 0.0034137 0.022 0.009 0.0034137
[...]
CELL_DATA 968
FIELD attributes 16
patchID 1 968 float
5 5 5 5 5 5 5 5 5 5 5
5 5 5 5 5 5 5 5 5 5
5 5 5 5 5 5 5 5 5 5
5 5 5 5 5 5 5 5 5 5
5 5 5 5 5 5 5 5 5 5
5 5 5 5 5 5 5 5 5 5
5 5 5 5 5 5 5 5 5 5
5 5 5 5 5 5 5 5 5 5
5 5 5 5 5 5 5 5 5 5
5 5 5 5 5 5 5 5 5 5
5 5 5 5 5 5 5 5 5 5
5 5 5 5 5 5 5 5 5 5
5 5 5 5 5 5 5 5 5 5
5 5 5 5 5 5 5 5 5 5
5 5 5 5 5 5 5 5 5 5
5 5 5 5 5 5 5 5 5 5
5 5 5 5 5 5 5 5 5 5
5 5 5 5 5 5 5 5 5 5
5 5 5 5 5 5 5 5 5 5
5 5 5 5 5 5 5 5 5 5
5 5 5 5 5 5 5 5 5 5
5 5 5 5 5 5 5 5 5 5
5 5 5 5 5 5 5 5 5 5
5 5 5 5 5 5 5 5 5 5
5 5 5 5 5 5 5 5 5 5
5 5 5 5 5 5 5 5 5 5
5 5 5 5 5 5 5 5 5 5
5 5 5 5 5 5 5 5 5 5
5 5 5 5 5 5 5 5 5 5
5 5 5 5 5 5 5 5 5 5
5 5 5 5 5 5 5 5 5 5
5 5 5 5 5 5 5 5 5 5
5 5 5 5 5 5 5 5 5 5
5 5 5 5 5 5 5 5 5 5
5 5 5 5 5 5 5 5 5 5
5 5 5 5 5 5 5 5 5 5
5 5 5 5 5 5 5 5 5 5
5 5 5 5 5 5 5 5 5 5
5 5 5 5 5 5 5 5 5 5
5 5 5 5 5 5 5 5 5 5
5 5 5 5 5 5 5 5 5 5
5 5 5 5 5 5 5 5 5 5
5 5 5 5 5 5 5 5 5 5
5 5 5 5 5 5 5 5 5 5
5 5 5 5 5 5 5 5 5 5
5 5 5 5 5 5 5 5 5 5
5 5 5 5 5 5 5 5 5 5
5 5 5 5 5 5 5 5 5 5
5 5 5 5 5 5 5 5 5 5
5 5 5 5 5 5 5 5 5 5
5 5 5 5 5 5 5 5 5 5
5 5 5 5 5 5 5 5 5 5
5 5 5 5 5 5 5 5 5 5
5 5 5 5 5 5 5 5 5 5
5 5 5 5 5 5 5 5 5 5
5 5 5 5 5 5 5 5 5 5
5 5 5 5 5 5 5 5 5 5
5 5 5 5 5 5 5 5 5 5
5 5 5 5 5 5 5 5 5 5
5 5 5 5 5 5 5 5 5 5
5 5 5 5 5 5 5 5 5 5
5 5 5 5 5 5 5 5 5 5
5 5 5 5 5 5 5 5 5 5
5 5 5 5 5 5 5 5 5 5
5 5 5 5 5 5 5 5 5 5
5 5 5 5 5 5 5 5 5 5
5 5 5 5 5 5 5 5 5 5
5 5 5 5 5 5 5 5 5 5
5 5 5 5 5 5 5 5 5 5
5 5 5 5 5 5 5 5 5 5
5 5 5 5 5 5 5 5 5 5
5 5 5 5 5 5 5 5 5 5
5 5 5 5 5 5 5 5 5 5
5 5 5 5 5 5 5 5 5 5
5 5 5 5 5 5 5 5 5 5
5 5 5 5 5 5 5 5 5 5
5 5 5 5 5 5 5 5 5 5
5 5 5 5 5 5 5 5 5 5
5 5 5 5 5 5 5 5 5 5
5 5 5 5 5 5 5 5 5 5
5 5 5 5 5 5 5 5 5 5
5 5 5 5 5 5 5 5 5 5
5 5 5 5 5 5 5 5 5 5
5 5 5 5 5 5 5 5 5 5
5 5 5 5 5 5 5 5 5 5
5 5 5 5 5 5 5 5 5 5
5 5 5 5 5 5 5 5 5 5
5 5 5 5 5 5 5 5 5 5
5 5 5 5 5 5 5 5 5 5
5 5 5 5 5 5 5 5 5 5
5 5 5 5 5 5 5 5 5 5
5 5 5 5 5 5 5 5 5 5
5 5 5 5 5 5 5 5 5 5
5 5 5 5 5 5 5 5 5 5
5 5 5 5 5 5 5 5 5 5
5 5 5 5 5 5 5 5 5 5
5 5 5 5 5 5 5 
YH2Oair 1 968 float
0.151637 0.151754 0.151888 0.152002 0.15188 0.151868 0.151746 0.151759 0.151784 0.151747 0.151671
0.151735 0.151687 0.15167 0.151707 0.151687 0.151665 0.151706 0.151667 0.151656 0.151695
0.151672 0.151671 0.151694 0.151655 0.151668 0.151706 0.151666 0.151688 0.151707 0.151671
0.151686 0.151734 0.15167 0.151746 0.151784 0.151759 0.151745 0.151866 0.15188 0.152001
0.151887 0.151753 0.151636 0.151547 0.151651 0.151383 0.151323 0.151342 0.15127 0.151486
0.151438 0.151209 0.151176 0.151187 0.151177 0.151411 0.151371 0.151155 0.151146 0.151152
0.151157 0.151383 0.151368 0.151148 0.151143 0.151143 0.151147 0.151367 0.151383 0.151157
0.151153 0.151146 0.151155 0.151371 0.15141 0.151176 0.151187 0.151177 0.15121 0.151439
0.151486 0.151269 0.151342 0.151323 0.151383 0.151651 0.151547 0.151348 0.151112 0.150932
0.151001 0.151101 0.150954 0.151296 0.15113 0.150904 0.150932 0.150964 0.150908 0.151203
0.151136 0.15089 0.150931 0.150949 0.150899 0.151169 0.151152 0.150892 0.150941 0.150941
0.150892 0.151151 0.151169 0.150899 0.150948 0.150932 0.15089 0.151136 0.151203 0.150908
0.150963 0.150932 0.150905 0.15113 0.151296 0.150954 0.151101 0.151 0.150932 0.151111
0.151347 0.15125 0.151053 0.150889 0.150975 0.151156 0.151004 0.151275 0.151143 0.150943
0.151006 0.151054 0.150975 0.151232 0.151186 0.150953 0.151012 0.151033 0.150965 0.151215
0.151206 0.150959 0.151022 0.151022 0.150959 0.151206 0.151215 0.150965 0.151033 0.151012
0.150953 0.151186 0.151232 0.150976 0.151053 0.151006 0.150944 0.151143 0.151275 0.151004
0.151156 0.150975 0.150889 0.151053 0.15125 0.151345 0.151114 0.150937 0.151035 0.151272
0.151104 0.151393 0.151224 0.151017 0.151095 0.151163 0.15107 0.15134 0.151275 0.15104
0.151108 0.151136 0.151057 0.151316 0.151298 0.15105 0.151121 0.151121 0.15105 0.151299
0.151315 0.151057 0.151136 0.151109 0.15104 0.151274 0.15134 0.15107 0.151162 0.151095
0.151017 0.151225 0.151393 0.151104 0.151273 0.151036 0.150938 0.151114 0.151346 0.151443
0.151185 0.151007 0.151114 0.151374 0.151227 0.151469 0.151306 0.151102 0.151188 0.151267
0.15118 0.151431 0.151356 0.15113 0.151205 0.151237 0.151159 0.151405 0.151382 0.151146
0.15122 0.15122 0.151146 0.151382 0.151404 0.151159 0.151237 0.151205 0.15113 0.151355
0.151432 0.151181 0.151267 0.151188 0.151102 0.151305 0.151469 0.151226 0.151373 0.151113
0.151006 0.151184 0.151441 0.151533 0.151256 0.151083 0.151189 0.151457 0.151325 0.151567
0.151381 0.15118 0.151271 0.151359 0.151278 0.151527 0.151438 0.151216 0.151291 0.151328
0.151256 0.151495 0.151468 0.151237 0.151309 0.151309 0.151237 0.151468 0.151495 0.151255
0.151327 0.151291 0.151215 0.151436 0.151527 0.151279 0.151359 0.151271 0.15118 0.151381
0.151568 0.151324 0.151457 0.151189 0.151083 0.151256 0.151533 0.151627 0.151326 0.15116
0.151262 0.151535 0.151414 0.151667 0.151453 0.151258 0.151347 0.151443 0.15137 0.151624
0.151519 0.151298 0.151369 0.151408 0.151341 0.151586 0.151555 0.151321 0.151388 0.151388
0.15132 0.151553 0.151586 0.151341 0.151408 0.151369 0.151297 0.151517 0.151624 0.151372
0.151443 0.151347 0.151259 0.151454 0.151668 0.151413 0.151535 0.151262 0.15116 0.151326
0.151626 0.151722 0.151398 0.151235 0.151329 0.151601 0.151494 0.151759 0.151524 0.151332
0.151415 0.151517 0.151453 0.151718 0.151602 0.151373 0.15144 0.151481 0.151417 0.151678
0.151645 0.151402 0.151462 0.151461 0.151401 0.151644 0.151678 0.15142 0.151482 0.151441
0.151373 0.151601 0.151718 0.151456 0.151517 0.151415 0.151333 0.151526 0.15176 0.151492
0.151601 0.15133 0.151235 0.151398 0.151722 0.151819 0.151473 0.151309 0.151392 0.151657
0.151578 0.15185 0.151597 0.151404 0.151482 0.151584 0.151532 0.151811 0.151682 0.151445
0.151507 0.151547 0.15149 0.151769 0.151732 0.151477 0.151528 0.151528 0.151476 0.151731
0.151769 0.151492 0.151547 0.151507 0.151445 0.151682 0.151811 0.151533 0.151584 0.151482
0.151406 0.1516 0.151851 0.151576 0.151657 0.151393 0.15131 0.151475 0.15182 0.151916
0.151556 0.151384 0.151452 0.151703 0.15166 0.151936 0.151668 0.151471 0.151545 0.151643
0.151597 0.151898 0.151761 0.151516 0.15157 0.151607 0.151557 0.151857 0.151818 0.151551
0.151591 0.15159 0.151549 0.151817 0.151857 0.151559 0.151607 0.15157 0.151516 0.151762
0.151899 0.151599 0.151644 0.151546 0.151472 0.15167 0.151937 0.151657 0.151703 0.151451
0.151383 0.151555 0.151914 0.15201 0.151642 0.151457 0.151508 0.151745 0.151738 0.152015
0.151736 0.151532 0.151605 0.151697 0.15166 0.151975 0.151846 0.151589 0.151631 0.151663
0.151621 0.151941 0.151906 0.151622 0.15165 0.151649 0.15162 0.151905 0.151941 0.151622
0.151662 0.151631 0.151589 0.151846 0.151974 0.15166 0.151697 0.151605 0.151534 0.151738
0.152017 0.151735 0.151746 0.151508 0.151456 0.151641 0.152009 0.152105 0.151733 0.151533
0.151567 0.151789 0.151811 0.152096 0.151809 0.151597 0.151662 0.151749 0.151726 0.152055
0.151933 0.151657 0.151687 0.151715 0.151684 0.152025 0.151992 0.151685 0.151705 0.151704
0.151683 0.151991 0.152026 0.151686 0.151715 0.151688 0.151658 0.151934 0.152053 0.151725
0.151749 0.151662 0.151598 0.151811 0.152097 0.151809 0.15179 0.151567 0.151533 0.151732
0.152105 0.152202 0.151826 0.151608 0.151624 0.151829 0.151875 0.152171 0.151899 0.151663
0.151715 0.151796 0.151798 0.152141 0.152021 0.15172 0.15174 0.151766 0.151749 0.152111
0.15208 0.151751 0.151759 0.151758 0.151749 0.152079 0.152112 0.151752 0.151767 0.151741
0.151722 0.152023 0.152139 0.151797 0.151796 0.151715 0.151664 0.1519 0.152173 0.151874
0.151829 0.151624 0.151608 0.151825 0.152202 0.1523 0.151927 0.15169 0.151684 0.151864
0.151931 0.152237 0.152004 0.151732 0.151768 0.151843 0.151866 0.152227 0.152113 0.151781
0.151792 0.151816 0.151809 0.152192 0.152168 0.151821 0.15181 0.151809 0.151819 0.152167
0.152192 0.15181 0.151816 0.151792 0.151785 0.152113 0.152224 0.151865 0.151842 0.151768
0.151732 0.152004 0.15224 0.151931 0.151866 0.151686 0.151692 0.151929 0.152302 0.152402
0.152045 0.15177 0.151743 0.151897 0.151981 0.152294 0.152109 0.151792 0.151817 0.151885
0.151923 0.152295 0.152205 0.151847 0.151842 0.151862 0.151861 0.152265 0.152257 0.15189
0.151859 0.151858 0.151887 0.152257 0.152265 0.151863 0.151863 0.151843 0.151849 0.152207
0.152295 0.151924 0.151886 0.151817 0.151791 0.152108 0.152297 0.151981 0.151898 0.151743
0.151769 0.152044 0.152401 0.152505 0.152179 0.151863 0.151808 0.151935 0.152028 0.152346
0.152209 0.151866 0.151872 0.151932 0.151975 0.152356 0.152299 0.151928 0.151898 0.151912
0.151916 0.152352 0.152346 0.151961 0.151911 0.15191 0.151959 0.152345 0.152349 0.151916
0.151912 0.151899 0.151929 0.1523 0.152358 0.151976 0.151932 0.151871 0.151865 0.152208
0.15235 0.152028 0.151936 0.151808 0.151863 0.152179 0.152504 0.152618 0.152338 0.151975
0.151876 0.151981 0.152076 0.152393 0.152314 0.15196 0.151932 0.151983 0.152023 0.152417
0.152391 0.15201 0.151954 0.151964 0.15198 0.152445 0.152436 0.152019 0.151963 0.151962
0.152018 0.152435 0.152442 0.151979 0.151963 0.151955 0.152008 0.152393 0.152421 0.152025
0.151984 0.151932 0.151959 0.152313 0.152396 0.152076 0.151982 0.151876 0.151973 0.152337
0.152618 0.152746 0.152499 0.152122 0.151967 0.152047 0.152144 0.152442 0.152408 0.152097
0.152017 0.152051 0.15209 0.152492 0.15248 0.152129 0.152034 0.152041 0.152101 0.152531
0.152521 0.152106 0.152036 0.152036 0.152105 0.15252 0.152528 0.1521 0.15204 0.152034
0.152126 0.152482 0.152498 0.152094 0.152052 0.152017 0.152097 0.152408 0.152443 0.152143
0.152047 0.151967 0.152121 0.152498 0.152746 0.152899 0.152703 0.152331 0.152093 0.152148
0.152254 0.152505 0.152514 0.15227 0.152133 0.152157 0.152221 0.152577 0.152586 0.152271
0.152144 0.152163 0.152288 0.152637 0.152623 0.152211 0.152136 0.152135 0.152213 0.152621
0.152633 0.152286 0.15216 0.152141 0.152267 0.152587 0.152583 0.152227 0.152157 0.152133
0.152272 0.152515 0.152506 0.152256 0.152149 0.152094 0.15233 0.152703 0.1529 0.1531
0.152941 0.152568 0.152235 0.152264 0.152376 0.152579 0.152622 0.152474 0.152275 0.152288
0.152389 0.152676 0.152691 0.152409 0.152272 0.152296 0.152501 0.152753 0.152718 0.15233
0.152255 0.152254 0.152328 0.152713 0.152749 0.152502 0.152295 0.152271 0.152407 0.152697
0.152685 0.152395 0.15229 0.152274 0.152476 0.152624 0.152582 0.152378 0.152265 0.152233
0.152565 0.152939 0.153099 0.153348 0.153283 0.153093 0.152543 0.152563 0.152714 0.152712
0.15277 0.152844 0.152588 0.152614 0.152797 0.152817 0.152848 0.152799 0.152587 0.152609
0.152907 0.152904 0.152896 0.152791 0.152552 0.152552 0.152786 0.15289 0.152896 0.152906
0.152608 0.152587 0.152802 0.152855 0.152824 0.152799 0.152618 0.152587 0.152846 0.152773
0.152714 0.152716 0.152566 0.152542 0.15309 0.153283 0.153348 
XH2Oair 1 968 float
0.222567 0.222722 0.2229 0.22305 0.222889 0.222873 0.222711 0.222728 0.222761 0.222713 0.222612
0.222696 0.222633 0.22261 0.22266 0.222633 0.222603 0.222658 0.222607 0.222592 0.222643
0.222614 0.222612 0.222642 0.222591 0.222607 0.222659 0.222605 0.222635 0.22266 0.222611
0.222632 0.222695 0.222611 0.222712 0.222761 0.222729 0.22271 0.22287 0.222889 0.223049
0.222898 0.22272 0.222565 0.222447 0.222585 0.22223 0.222151 0.222175 0.22208 0.222367
0.222303 0.221999 0.221955 0.22197 0.221957 0.222267 0.222214 0.221927 0.221915 0.221924
0.221931 0.22223 0.222209 0.221918 0.221912 0.221911 0.221917 0.222208 0.22223 0.221931
0.221924 0.221915 0.221928 0.222214 0.222265 0.221956 0.22197 0.221957 0.222 0.222304
0.222367 0.222079 0.222175 0.22215 0.222229 0.222585 0.222447 0.222183 0.22187 0.221632
0.221723 0.221857 0.221662 0.222115 0.221895 0.221596 0.221632 0.221674 0.221601 0.221991
0.221903 0.221577 0.221631 0.221654 0.221588 0.221946 0.221923 0.22158 0.221643 0.221643
0.221579 0.221923 0.221946 0.221588 0.221653 0.221631 0.221577 0.221903 0.221991 0.2216
0.221673 0.221631 0.221596 0.221895 0.222115 0.221661 0.221857 0.221723 0.221632 0.22187
0.222183 0.222054 0.221793 0.221575 0.221689 0.221929 0.221728 0.222088 0.221912 0.221647
0.221731 0.221793 0.22169 0.222031 0.221969 0.22166 0.221739 0.221766 0.221675 0.222007
0.221996 0.221668 0.221751 0.221751 0.221668 0.221996 0.222007 0.221676 0.221767 0.221739
0.22166 0.221969 0.22203 0.22169 0.221793 0.22173 0.221647 0.221912 0.222088 0.221728
0.221929 0.221689 0.221575 0.221793 0.222054 0.222179 0.221873 0.221639 0.221769 0.222083
0.22186 0.222243 0.222019 0.221744 0.221848 0.221938 0.221815 0.222173 0.222087 0.221775
0.221865 0.221902 0.221798 0.222141 0.222117 0.221789 0.221882 0.221882 0.221789 0.222118
0.22214 0.221798 0.221902 0.221866 0.221775 0.222086 0.222173 0.221815 0.221937 0.221849
0.221745 0.22202 0.222243 0.22186 0.222083 0.22177 0.22164 0.221874 0.222181 0.222309
0.221968 0.221732 0.221874 0.222218 0.222023 0.222345 0.222127 0.221857 0.221972 0.222076
0.22196 0.222294 0.222194 0.221895 0.221993 0.222036 0.221933 0.222259 0.222228 0.221916
0.222014 0.222014 0.221916 0.222229 0.222258 0.221933 0.222037 0.221994 0.221894 0.222193
0.222295 0.221962 0.222076 0.221971 0.221857 0.222127 0.222344 0.222022 0.222217 0.221872
0.221731 0.221967 0.222307 0.22243 0.222061 0.221832 0.221972 0.222328 0.222153 0.222474
0.222227 0.221961 0.222082 0.222198 0.22209 0.222421 0.222302 0.222008 0.222107 0.222156
0.222061 0.222379 0.222342 0.222036 0.222132 0.222132 0.222035 0.222342 0.222379 0.22206
0.222155 0.222108 0.222007 0.2223 0.222421 0.222092 0.222198 0.222081 0.221961 0.222227
0.222475 0.222152 0.222328 0.221972 0.221832 0.222061 0.222429 0.222553 0.222154 0.221934
0.22207 0.222431 0.222271 0.222606 0.222323 0.222064 0.222182 0.222309 0.222212 0.222549
0.22241 0.222117 0.222211 0.222263 0.222174 0.222499 0.222457 0.222148 0.222237 0.222236
0.222147 0.222456 0.222499 0.222174 0.222263 0.222211 0.222116 0.222408 0.222549 0.222215
0.222309 0.222182 0.222065 0.222324 0.222607 0.222269 0.222431 0.22207 0.221934 0.222154
0.222553 0.22268 0.222249 0.222034 0.222159 0.222518 0.222377 0.222729 0.222417 0.222162
0.222273 0.222407 0.222323 0.222674 0.22252 0.222217 0.222306 0.222359 0.222275 0.222621
0.222577 0.222255 0.222334 0.222333 0.222253 0.222575 0.222621 0.222278 0.22236 0.222307
0.222216 0.222519 0.222674 0.222327 0.222407 0.222272 0.222163 0.222419 0.22273 0.222375
0.222518 0.222159 0.222034 0.222249 0.22268 0.222808 0.22235 0.222132 0.222241 0.222592
0.222488 0.222848 0.222514 0.222258 0.222361 0.222496 0.222427 0.222798 0.222627 0.222312
0.222394 0.222447 0.222371 0.222741 0.222692 0.222355 0.222422 0.222421 0.222352 0.222691
0.222741 0.222374 0.222447 0.222394 0.222312 0.222626 0.222797 0.222428 0.222496 0.222361
0.22226 0.222517 0.22285 0.222485 0.222593 0.222243 0.222134 0.222351 0.22281 0.222936
0.22246 0.222231 0.22232 0.222654 0.222597 0.222963 0.222607 0.222346 0.222445 0.222574
0.222514 0.222912 0.222731 0.222406 0.222477 0.222526 0.22246 0.222858 0.222806 0.222452
0.222505 0.222503 0.22245 0.222805 0.222858 0.222463 0.222526 0.222478 0.222406 0.222732
0.222913 0.222516 0.222575 0.222445 0.222348 0.222611 0.222964 0.222593 0.222654 0.22232
0.22223 0.222458 0.222934 0.223061 0.222573 0.222327 0.222396 0.22271 0.2227 0.223068
0.222698 0.222428 0.222523 0.222646 0.222596 0.223015 0.222843 0.222502 0.222558 0.2226
0.222545 0.222969 0.222923 0.222546 0.222583 0.222582 0.222543 0.222922 0.22297 0.222547
0.2226 0.222558 0.222503 0.222843 0.223014 0.222596 0.222646 0.222524 0.222429 0.222701
0.22307 0.222697 0.22271 0.222396 0.222327 0.222573 0.22306 0.223187 0.222694 0.222429
0.222474 0.222768 0.222797 0.223175 0.222795 0.222513 0.222599 0.222714 0.222684 0.223121
0.222959 0.222593 0.222633 0.222669 0.222629 0.223081 0.223037 0.22263 0.222656 0.222655
0.222627 0.223036 0.223082 0.222631 0.22267 0.222634 0.222594 0.22296 0.223118 0.222684
0.222714 0.2226 0.222514 0.222797 0.223176 0.222795 0.222768 0.222474 0.222428 0.222693
0.223187 0.223316 0.222817 0.222529 0.222549 0.22282 0.222881 0.223274 0.222914 0.222601
0.222669 0.222776 0.222779 0.223235 0.223076 0.222676 0.222703 0.222737 0.222715 0.223194
0.223153 0.222718 0.222727 0.222726 0.222714 0.223152 0.223196 0.222719 0.222739 0.222704
0.222679 0.223078 0.223231 0.222778 0.222776 0.22267 0.222602 0.222915 0.223276 0.22288
0.22282 0.222549 0.222528 0.222817 0.223315 0.223446 0.222952 0.222637 0.222629 0.222868
0.222956 0.223362 0.223054 0.222693 0.222739 0.222839 0.22287 0.223349 0.223197 0.222758
0.222771 0.222803 0.222794 0.223302 0.22327 0.22281 0.222795 0.222794 0.222807 0.223269
0.223302 0.222796 0.222804 0.222772 0.222762 0.223197 0.223344 0.222868 0.222838 0.222739
0.222692 0.223053 0.223365 0.222956 0.222869 0.222631 0.222639 0.222953 0.223448 0.223581
0.223108 0.222742 0.222707 0.222911 0.223021 0.223437 0.223192 0.222772 0.222804 0.222895
0.222945 0.223439 0.22332 0.222844 0.222837 0.222864 0.222864 0.223399 0.223388 0.222901
0.22286 0.222859 0.222897 0.223388 0.223398 0.222866 0.222865 0.222839 0.222847 0.223322
0.223439 0.222946 0.222896 0.222804 0.22277 0.223191 0.223442 0.223022 0.222912 0.222706
0.222741 0.223106 0.223579 0.223716 0.223285 0.222866 0.222793 0.222961 0.223084 0.223506
0.223325 0.22287 0.222877 0.222957 0.223014 0.22352 0.223443 0.222952 0.222912 0.222931
0.222936 0.223514 0.223506 0.222996 0.222929 0.222928 0.222992 0.223505 0.22351 0.222936
0.22293 0.222913 0.222953 0.223445 0.223522 0.223015 0.222957 0.222876 0.222868 0.223323
0.223511 0.223085 0.222962 0.222793 0.222866 0.223284 0.223716 0.223867 0.223496 0.223014
0.222883 0.223022 0.223147 0.223568 0.223463 0.222994 0.222957 0.223025 0.223078 0.2236
0.223567 0.22306 0.222986 0.222999 0.223021 0.223637 0.223626 0.223072 0.222997 0.222996
0.223071 0.223624 0.223633 0.223019 0.222998 0.222987 0.223058 0.223568 0.223606 0.223081
0.223025 0.222956 0.222993 0.223463 0.223572 0.223148 0.223023 0.222883 0.223012 0.223495
0.223867 0.224037 0.223709 0.22321 0.223003 0.223109 0.223237 0.223632 0.223588 0.223176
0.22307 0.223114 0.223166 0.223699 0.223683 0.223218 0.223093 0.223101 0.223181 0.223752
0.223739 0.223188 0.223095 0.223094 0.223186 0.223737 0.223747 0.223179 0.2231 0.223092
0.223214 0.223686 0.223707 0.223171 0.223115 0.22307 0.223175 0.223588 0.223635 0.223237
0.223109 0.223003 0.223209 0.223708 0.224036 0.224238 0.223979 0.223486 0.22317 0.223243
0.223384 0.223716 0.223729 0.223405 0.223223 0.223254 0.223339 0.223812 0.223824 0.223406
0.223237 0.223263 0.223428 0.223891 0.223873 0.223326 0.223227 0.223226 0.223329 0.22387
0.223886 0.223425 0.223259 0.223233 0.223401 0.223826 0.223819 0.223347 0.223255 0.223223
0.223407 0.22373 0.223718 0.223385 0.223244 0.223172 0.223485 0.22398 0.22424 0.224506
0.224294 0.2238 0.223358 0.223396 0.223545 0.223815 0.223871 0.223675 0.223412 0.223428
0.223562 0.223944 0.223963 0.223588 0.223407 0.223439 0.22371 0.224046 0.223999 0.223484
0.223385 0.223383 0.223481 0.223993 0.224039 0.223713 0.223438 0.223405 0.223586 0.223971
0.223955 0.22357 0.22343 0.22341 0.223678 0.223874 0.223818 0.223548 0.223398 0.223356
0.223796 0.224291 0.224504 0.224834 0.224748 0.224495 0.223766 0.223793 0.223993 0.223991
0.224068 0.224165 0.223825 0.22386 0.224102 0.224131 0.224172 0.224106 0.223825 0.223853
0.224248 0.224245 0.224235 0.224094 0.223778 0.223777 0.224088 0.224227 0.224235 0.224247
0.223852 0.223825 0.22411 0.22418 0.224139 0.224105 0.223865 0.223825 0.224167 0.224071
0.223993 0.223995 0.223796 0.223765 0.224491 0.224747 0.224834 
rho 1 968 float
0.913701 0.913605 0.913472 0.913455 0.913577 0.913511 0.913627 0.913606 0.913538 0.913607 0.913676
0.913563 0.913651 0.913655 0.913579 0.913648 0.913668 0.913579 0.91366 0.913666 0.913585
0.913661 0.913661 0.913586 0.913666 0.91366 0.913578 0.913668 0.913647 0.913578 0.913654
0.913651 0.913563 0.913677 0.913608 0.913538 0.913606 0.913627 0.913512 0.913577 0.913454
0.913473 0.913605 0.913702 0.913562 0.913452 0.913759 0.913882 0.913913 0.913922 0.913751
0.913736 0.914001 0.914071 0.914067 0.914045 0.913814 0.91383 0.914072 0.914122 0.914118
0.914079 0.913843 0.913851 0.91409 0.914133 0.914133 0.91409 0.913852 0.913843 0.914079
0.914117 0.914122 0.914071 0.913829 0.913815 0.914047 0.914068 0.914071 0.914 0.913736