# vtk DataFile Version 2.0
fuelOutlet
ASCII
DATASET POLYDATA
POINTS 1085 float
0.0039544 0.001 0.022 0.0040044 0.001 0.022 0.0040044 0.0015 0.022 0.0039544 0.0015
0.022 0.0040044 0.002 0.022 0.0039544 0.002 0.022 0.0040044 0.0025 0.022
0.0039544 0.0025 0.022 0.0040044 0.003 0.022 0.0039544 0.003 0.022 0.0039544
0.004 0.022 0.0040044 0.004 0.022 0.0040044 0.0045 0.022 0.0039544 0.0045
0.022 0.0040044 0.005 0.022 0.0039544 0.005 0.022 0.0040044 0.0055 0.022
0.0039544 0.0055 0.022 0.0040044 0.006 0.022 0.0039544 0.006 0.022 0.0039544
0.007 0.022 0.0040044 0.007 0.022 0.0040044 0.0075 0.022 0.0039544 0.0075
0.022 0.0040044 0.008 0.022 0.0039544 0.008 0.022 0.0040044 0.0085 0.022
0.0039544 0.0085 0.022 0.0040044 0.009 0.022 0.0039544 0.009 0.022 0.0039544
0.01 0.022 0.0040044 0.01 0.022 0.0040044 0.0105 0.022 0.0039544 0.0105
0.022 0.0040044 0.011 0.022 0.0039544 0.011 0.022 0.0040044 0.0115 0.022
0.0039544 0.0115 0.022 0.0040044 0.012 0.022 0.0039544 0.012 0.022 0.0039544
0.013 0.022 0.0040044 0.013 0.022 0.0040044 0.0135 0.022 0.0039544 0.0135
0.022 0.0040044 0.014 0.022 0.0039544 0.014 0.022 0.0040044 0.0145 0.022
0.0039544 0.0145 0.022 0.0040044 0.015 0.022 0.0039544 0.015 0.022 0.0039544
0.016 0.022 0.0040044 0.016 0.022 0.0040044 0.0165 0.022 0.0039544 0.0165
0.022 0.0040044 0.017 0.022 0.0039544 0.017 0.022 0.0040044 0.0175 0.022
0.0039544 0.0175 0.022 0.0040044 0.018 0.022 0.0039544 0.018 0.022 0.0039544
0.019 0.022 0.0040044 0.019 0.022 0.0040044 0.0195 0.022 0.0039544 0.0195
0.022 0.0040044 0.02 0.022 0.0039544 0.02 0.022 0.0040044 0.0205 0.022
0.0039544 0.0205 0.022 0.0040044 0.021 0.022 0.0039544 0.021 0.022 0.0040544
0.001 0.022 0.0040544 0.0015 0.022 0.0040544 0.002 0.022 0.0040544 0.0025
0.022 0.0040544 0.003 0.022 0.0040544 0.004 0.022 0.0040544 0.0045 0.022
0.0040544 0.005 0.022 0.0040544 0.0055 0.022 0.0040544 0.006 0.022 0.0040544
0.007 0.022 0.0040544 0.0075 0.022 0.0040544 0.008 0.022 0.0040544 0.0085
0.022 0.0040544 0.009 0.022 0.0040544 0.01 0.022 0.0040544 0.0105 0.022
0.0040544 0.011 0.022 0.0040544 0.0115 0.022 0.0040544 0.012 0.022 0.0040544
0.013 0.022 0.0040544 0.0135 0.022 0.0040544 0.014 0.022 0.0040544 0.0145
0.022 0.0040544 0.015 0.022 0.0040544 0.016 0.022 0.0040544 0.0165 0.022
0.0040544 0.017 0.022 0.0040544 0.0175 0.022 0.0040544 0.018 0.022 0.0040544
0.019 0.022 0.0040544 0.0195 0.022 0.0040544 0.02 0.022 0.0040544 0.0205
0.022 0.0040544 0.021 0.022 0.0041044 0.001 0.022 0.0041044 0.0015 0.022
0.0041044 0.002 0.022 0.0041044 0.0025 0.022 0.0041044 0.003 0.022 0.0041044
0.004 0.022 0.0041044 0.0045 0.022 0.0041044 0.005 0.022 0.0041044 0.0055
0.022 0.0041044 0.006 0.022 0.0041044 0.007 0.022 0.0041044 0.0075 0.022
0.0041044 0.008 0.022 0.0041044 0.0085 0.022 0.0041044 0.009 0.022 0.0041044
0.01 0.022 0.0041044 0.0105 0.022 0.0041044 0.011 0.022 0.0041044 0.0115
0.022 0.0041044 0.012 0.022 0.0041044 0.013 0.022 0.0041044 0.0135 0.022
0.0041044 0.014 0.022 0.0041044 0.0145 0.022 0.0041044 0.015 0.022 0.0041044
0.016 0.022 0.0041044 0.0165 0.022 0.0041044 0.017 0.022 0.0041044 0.0175
0.022 0.0041044 0.018 0.022 0.0041044 0.019 0.022 0.0041044 0.0195 0.022
0.0041044 0.02 0.022 0.0041044 0.0205 0.022 0.0041044 0.021 0.022 0.0041544
0.001 0.022 0.0041544 0.0015 0.022 0.0041544 0.002 0.022 0.0041544 0.0025
0.022 0.0041544 0.003 0.022 0.0041544 0.004 0.022 0.0041544 0.0045 0.022
0.0041544 0.005 0.022 0.0041544 0.0055 0.022 0.0041544 0.006 0.022 0.0041544
0.007 0.022 0.0041544 0.0075 0.022 0.0041544 0.008 0.022 0.0041544 0.0085
0.022 0.0041544 0.009 0.022 0.0041544 0.01 0.022 0.0041544 0.0105 0.022
0.0041544 0.011 0.022 0.0041544 0.0115 0.022 0.0041544 0.012 0.022 0.0041544
0.013 0.022 0.0041544 0.0135 0.022 0.0041544 0.014 0.022 0.0041544 0.0145
0.022 0.0041544 0.015 0.022 0.0041544 0.016 0.022 0.0041544 0.0165 0.022
0.0041544 0.017 0.022 0.0041544 0.0175 0.022 0.0041544 0.018 0.022 0.0041544
0.019 0.022 0.0041544 0.0195 0.022 0.0041544 0.02 0.022 0.0041544 0.0205
0.022 0.0041544 0.021 0.022 0.0042044 0.001 0.022 0.0042044 0.0015 0.022
0.0042044 0.002 0.022 0.0042044 0.0025 0.022 0.0042044 0.003 0.022 0.0042044
0.004 0.022 0.0042044 0.0045 0.022 0.0042044 0.005 0.022 0.0042044 0.0055
0.022 0.0042044 0.006 0.022 0.0042044 0.007 0.022 0.0042044 0.0075 0.022
0.0042044 0.008 0.022 0.0042044 0.0085 0.022 0.0042044 0.009 0.022 0.0042044
0.01 0.022 0.0042044 0.0105 0.022 0.0042044 0.011 0.022 0.0042044 0.0115
0.022 0.0042044 0.012 0.022 0.0042044 0.013 0.022 0.0042044 0.0135 0.022
0.0042044 0.014 0.022 0.0042044 0.0145 0.022 0.0042044 0.015 0.022 0.0042044
0.016 0.022 0.0042044 0.0165 0.022 0.0042044 0.017 0.022 0.0042044 0.0175
0.022 0.0042044 0.018 0.022 0.0042044 0.019 0.022 0.0042044 0.0195 0.022
0.0042044 0.02 0.022 0.0042044 0.0205 0.022 0.0042044 0.021 0.022 0.0042544
0.001 0.022 0.0042544 0.0015 0.022 0.0042544 0.002 0.022 0.0042544 0.0025
0.022 0.0042544 0.003 0.022 0.0042544 0.004 0.022 0.0042544 0.0045 0.022
0.0042544 0.005 0.022 0.0042544 0.0055 0.022 0.0042544 0.006 0.022 0.0042544
0.007 0.022 0.0042544 0.0075 0.022 0.0042544 0.008 0.022 0.0042544 0.0085
0.022 0.0042544 0.009 0.022 0.0042544 0.01 0.022 0.0042544 0.0105 0.022
0.0042544 0.011 0.022 0.0042544 0.0115 0.022 0.0042544 0.012 0.022 0.0042544
0.013 0.022 0.0042544 0.0135 0.022 0.0042544 0.014 0.022 0.0042544 0.0145
0.022 0.0042544 0.015 0.022 0.0042544 0.016 0.022 0.0042544 0.0165 0.022
0.0042544 0.017 0.022 0.0042544 0.0175 0.022 0.0042544 0.018 0.022 0.0042544
0.019 0.022 0.0042544 0.0195 0.022 0.0042544 0.02 0.022 0.0042544 0.0205
0.022 0.0042544 0.021 0.022 0.0043044 0.001 0.022 0.0043044 0.0015 0.022
0.0043044 0.002 0.022 0.0043044 0.0025 0.022 0.0043044 0.003 0.022 0.0043044
0.004 0.022 0.0043044 0.0045 0.022 0.0043044 0.005 0.022 0.0043044 0.0055
0.022 0.0043044 0.006 0.022 0.0043044 0.007 0.022 0.0043044 0.0075 0.022
0.0043044 0.008 0.022 0.0043044 0.0085 0.022 0.0043044 0.009 0.022 0.0043044
0.01 0.022 0.0043044 0.0105 0.022 0.0043044 0.011 0.022 0.0043044 0.0115
0.022 0.0043044 0.012 0.022 0.0043044 0.013 0.022 0.0043044 0.0135 0.022
0.0043044 0.014 0.022 0.0043044 0.0145 0.022 0.0043044 0.015 0.022 0.0043044
0.016 0.022 0.0043044 0.0165 0.022 0.0043044 0.017 0.022 0.0043044 0.0175
0.022 0.0043044 0.018 0.022 0.0043044 0.019 0.022 0.0043044 0.0195 0.022
0.0043044 0.02 0.022 0.0043044 0.0205 0.022 0.0043044 0.021 0.022 0.0043544
0.001 0.022 0.0043544 0.0015 0.022 0.0043544 0.002 0.022 0.0043544 0.0025
0.022 0.0043544 0.003 0.022 0.0043544 0.004 0.022 0.0043544 0.0045 0.022
0.0043544 0.005 0.022 0.0043544 0.0055 0.022 0.0043544 0.006 0.022 0.0043544
0.007 0.022 0.0043544 0.0075 0.022 0.0043544 0.008 0.022 0.0043544 0.0085
0.022 0.0043544 0.009 0.022 0.0043544 0.01 0.022 0.0043544 0.0105 0.022
0.0043544 0.011 0.022 0.0043544 0.0115 0.022 0.0043544 0.012 0.022 0.0043544
0.013 0.022 0.0043544 0.0135 0.022 0.0043544 0.014 0.022 0.0043544 0.0145
0.022 0.0043544 0.015 0.022 0.0043544 0.016 0.022 0.0043544 0.0165 0.022
0.0043544 0.017 0.022 0.0043544 0.0175 0.022 0.0043544 0.018 0.022 0.0043544
0.019 0.022 0.0043544 0.0195 0.022 0.0043544 0.02 0.022 0.0043544 0.0205
0.022 0.0043544 0.021 0.022 0.0044044 0.001 0.022 0.0044044 0.0015 0.022
0.0044044 0.002 0.022 0.0044044 0.0025 0.022 0.0044044 0.003 0.022 0.0044044
0.004 0.022 0.0044044 0.0045 0.022 0.0044044 0.005 0.022 0.0044044 0.0055
0.022 0.0044044 0.006 0.022 0.0044044 0.007 0.022 0.0044044 0.0075 0.022
0.0044044 0.008 0.022 0.0044044 0.0085 0.022 0.0044044 0.009 0.022 0.0044044
0.01 0.022 0.0044044 0.0105 0.022 0.0044044 0.011 0.022 0.0044044 0.0115
0.022 0.0044044 0.012 0.022 0.0044044 0.013 0.022 0.0044044 0.0135 0.022
0.0044044 0.014 0.022 0.0044044 0.0145 0.022 0.0044044 0.015 0.022 0.0044044
0.016 0.022 0.0044044 0.0165 0.022 0.0044044 0.017 0.022 0.0044044 0.0175
0.022 0.0044044 0.018 0.022 0.0044044 0.019 0.022 0.0044044 0.0195 0.022
0.0044044 0.02 0.022 0.0044044 0.0205 0.022 0.0044044 0.021 0.022 0.0044544
0.001 0.022 0.0044544 0.0015 0.022 0.0044544 0.002 0.022 0.0044544 0.0025
0.022 0.0044544 0.003 0.022 0.0044544 0.004 0.022 0.0044544 0.0045 0.022
0.0044544 0.005 0.022 0.0044544 0.0055 0.022 0.0044544 0.006 0.022 0.0044544
0.007 0.022 0.0044544 0.0075 0.022 0.0044544 0.008 0.022 0.0044544 0.0085
0.022 0.0044544 0.009 0.022 0.0044544 0.01 0.022 0.0044544 0.0105 0.022
0.0044544 0.011 0.022 0.0044544 0.0115 0.022 0.0044544 0.012 0.022 0.0044544
0.013 0.022 0.0044544 0.0135 0.022 0.0044544 0.014 0.022 0.0044544 0.0145
0.022 0.0044544 0.015 0.022 0.0044544 0.016 0.022 0.0044544 0.0165 0.022
0.0044544 0.017 0.022 0.0044544 0.0175 0.022 0.0044544 0.018 0.022 0.0044544
0.019 0.022 0.0044544 0.0195 0.022 0.0044544 0.02 0.022 0.0044544 0.0205
0.022 0.0044544 0.021 0.022 0.0045044 0.001 0.022 0.0045044 0.0015 0.022
0.0045044 0.002 0.022 0.0045044 0.0025 0.022 0.0045044 0.003 0.022 0.0045044
0.004 0.022 0.0045044 0.0045 0.022 0.0045044 0.005 0.022 0.0045044 0.0055
0.022 0.0045044 0.006 0.022 0.0045044 0.007 0.022 0.0045044 0.0075 0.022
0.0045044 0.008 0.022 0.0045044 0.0085 0.022 0.0045044 0.009 0.022 0.0045044
0.01 0.022 0.0045044 0.0105 0.022 0.0045044 0.011 0.022 0.0045044 0.0115
0.022 0.0045044 0.012 0.022 0.0045044 0.013 0.022 0.0045044 0.0135 0.022
0.0045044 0.014 0.022 0.0045044 0.0145 0.022 0.0045044 0.015 0.022 0.0045044
0.016 0.022 0.0045044 0.0165 0.022 0.0045044 0.017 0.022 0.0045044 0.0175
0.022 0.0045044 0.018 0.022 0.0045044 0.019 0.022 0.0045044 0.0195 0.022
0.0045044 0.02 0.022 0.0045044 0.0205 0.022 0.0045044 0.021 0.022 0.0045544
0.001 0.022 0.0045544 0.0015 0.022 0.0045544 0.002 0.022 0.0045544 0.0025
0.022 0.0045544 0.003 0.022 0.0045544 0.004 0.022 0.0045544 0.0045 0.022
0.0045544 0.005 0.022 0.0045544 0.0055 0.022 0.0045544 0.006 0.022 0.0045544
0.007 0.022 0.0045544 0.0075 0.022 0.0045544 0.008 0.022 0.0045544 0.0085
0.022 0.0045544 0.009 0.022 0.0045544 0.01 0.022 0.0045544 0.0105 0.022
0.0045544 0.011 0.022 0.0045544 0.0115 0.022 0.0045544 0.012 0.022 0.0045544
0.013 0.022 0.0045544 0.0135 0.022 0.0045544 0.014 0.022 0.0045544 0.0145
[...]
CELL_DATA 840
FIELD attributes 16
patchID 1 840 float
3 3 3 3 3 3 3 3 3 3 3
3 3 3 3 3 3 3 3 3 3
3 3 3 3 3 3 3 3 3 3
3 3 3 3 3 3 3 3 3 3
3 3 3 3 3 3 3 3 3 3
3 3 3 3 3 3 3 3 3 3
3 3 3 3 3 3 3 3 3 3
3 3 3 3 3 3 3 3 3 3
3 3 3 3 3 3 3 3 3 3
3 3 3 3 3 3 3 3 3 3
3 3 3 3 3 3 3 3 3 3
3 3 3 3 3 3 3 3 3 3
3 3 3 3 3 3 3 3 3 3
3 3 3 3 3 3 3 3 3 3
3 3 3 3 3 3 3 3 3 3
3 3 3 3 3 3 3 3 3 3
3 3 3 3 3 3 3 3 3 3
3 3 3 3 3 3 3 3 3 3
3 3 3 3 3 3 3 3 3 3
3 3 3 3 3 3 3 3 3 3
3 3 3 3 3 3 3 3 3 3
3 3 3 3 3 3 3 3 3 3
3 3 3 3 3 3 3 3 3 3
3 3 3 3 3 3 3 3 3 3
3 3 3 3 3 3 3 3 3 3
3 3 3 3 3 3 3 3 3 3
3 3 3 3 3 3 3 3 3 3
3 3 3 3 3 3 3 3 3 3
3 3 3 3 3 3 3 3 3 3
3 3 3 3 3 3 3 3 3 3
3 3 3 3 3 3 3 3 3 3
3 3 3 3 3 3 3 3 3 3
3 3 3 3 3 3 3 3 3 3
3 3 3 3 3 3 3 3 3 3
3 3 3 3 3 3 3 3 3 3
3 3 3 3 3 3 3 3 3 3
3 3 3 3 3 3 3 3 3 3
3 3 3 3 3 3 3 3 3 3
3 3 3 3 3 3 3 3 3 3
3 3 3 3 3 3 3 3 3 3
3 3 3 3 3 3 3 3 3 3
3 3 3 3 3 3 3 3 3 3
3 3 3 3 3 3 3 3 3 3
3 3 3 3 3 3 3 3 3 3
3 3 3 3 3 3 3 3 3 3
3 3 3 3 3 3 3 3 3 3
3 3 3 3 3 3 3 3 3 3
3 3 3 3 3 3 3 3 3 3
3 3 3 3 3 3 3 3 3 3
3 3 3 3 3 3 3 3 3 3
3 3 3 3 3 3 3 3 3 3
3 3 3 3 3 3 3 3 3 3
3 3 3 3 3 3 3 3 3 3
3 3 3 3 3 3 3 3 3 3
3 3 3 3 3 3 3 3 3 3
3 3 3 3 3 3 3 3 3 3
3 3 3 3 3 3 3 3 3 3
3 3 3 3 3 3 3 3 3 3
3 3 3 3 3 3 3 3 3 3
3 3 3 3 3 3 3 3 3 3
3 3 3 3 3 3 3 3 3 3
3 3 3 3 3 3 3 3 3 3
3 3 3 3 3 3 3 3 3 3
3 3 3 3 3 3 3 3 3 3
3 3 3 3 3 3 3 3 3 3
3 3 3 3 3 3 3 3 3 3
3 3 3 3 3 3 3 3 3 3
3 3 3 3 3 3 3 3 3 3
3 3 3 3 3 3 3 3 3 3
3 3 3 3 3 3 3 3 3 3
3 3 3 3 3 3 3 3 3 3
3 3 3 3 3 3 3 3 3 3
3 3 3 3 3 3 3 3 3 3
3 3 3 3 3 3 3 3 3 3
3 3 3 3 3 3 3 3 3 3
3 3 3 3 3 3 3 3 3 3
3 3 3 3 3 3 3 3 3 3
3 3 3 3 3 3 3 3 3 3
3 3 3 3 3 3 3 3 3 3
3 3 3 3 3 3 3 3 3 3
3 3 3 3 3 3 3 3 3 3
3 3 3 3 3 3 3 3 3 3
3 3 3 3 3 3 3 3 3 3
3 3 3 3 3 3 3 3 3 
diffH2Ofuel 1 840 float
0 0 0 0 0 0 0 0 0 0 0
0 0 0 0 0 0 0 0 0 0
0 0 0 0 0 0 0 0 0 0
0 0 0 0 0 0 0 0 0 0
0 0 0 0 0 0 0 0 0 0
0 0 0 0 0 0 0 0 0 0
0 0 0 0 0 0 0 0 0 0
0 0 0 0 0 0 0 0 0 0
0 0 0 0 0 0 0 0 0 0
0 0 0 0 0 0 0 0 0 0
0 0 0 0 0 0 0 0 0 0
0 0 0 0 0 0 0 0 0 0
0 0 0 0 0 0 0 0 0 0
0 0 0 0 0 0 0 0 0 0
0 0 0 0 0 0 0 0 0 0
0 0 0 0 0 0 0 0 0 0
0 0 0 0 0 0 0 0 0 0
0 0 0 0 0 0 0 0 0 0
0 0 0 0 0 0 0 0 0 0
0 0 0 0 0 0 0 0 0 0
0 0 0 0 0 0 0 0 0 0
0 0 0 0 0 0 0 0 0 0
0 0 0 0 0 0 0 0 0 0
0 0 0 0 0 0 0 0 0 0
0 0 0 0 0 0 0 0 0 0
0 0 0 0 0 0 0 0 0 0
0 0 0 0 0 0 0 0 0 0
0 0 0 0 0 0 0 0 0 0
0 0 0 0 0 0 0 0 0 0
0 0 0 0 0 0 0 0 0 0
0 0 0 0 0 0 0 0 0 0
0 0 0 0 0 0 0 0 0 0
0 0 0 0 0 0 0 0 0 0
0 0 0 0 0 0 0 0 0 0
0 0 0 0 0 0 0 0 0 0
0 0 0 0 0 0 0 0 0 0
0 0 0 0 0 0 0 0 0 0
0 0 0 0 0 0 0 0 0 0
0 0 0 0 0 0 0 0 0 0
0 0 0 0 0 0 0 0 0 0
0 0 0 0 0 0 0 0 0 0
0 0 0 0 0 0 0 0 0 0
0 0 0 0 0 0 0 0 0 0
0 0 0 0 0 0 0 0 0 0
0 0 0 0 0 0 0 0 0 0
0 0 0 0 0 0 0 0 0 0
0 0 0 0 0 0 0 0 0 0
0 0 0 0 0 0 0 0 0 0
0 0 0 0 0 0 0 0 0 0
0 0 0 0 0 0 0 0 0 0
0 0 0 0 0 0 0 0 0 0
0 0 0 0 0 0 0 0 0 0
0 0 0 0 0 0 0 0 0 0
0 0 0 0 0 0 0 0 0 0
0 0 0 0 0 0 0 0 0 0
0 0 0 0 0 0 0 0 0 0
0 0 0 0 0 0 0 0 0 0
0 0 0 0 0 0 0 0 0 0
0 0 0 0 0 0 0 0 0 0
0 0 0 0 0 0 0 0 0 0
0 0 0 0 0 0 0 0 0 0
0 0 0 0 0 0 0 0 0 0
0 0 0 0 0 0 0 0 0 0
0 0 0 0 0 0 0 0 0 0
0 0 0 0 0 0 0 0 0 0
0 0 0 0 0 0 0 0 0 0
0 0 0 0 0 0 0 0 0 0
0 0 0 0 0 0 0 0 0 0
0 0 0 0 0 0 0 0 0 0
0 0 0 0 0 0 0 0 0 0
0 0 0 0 0 0 0 0 0 0
0 0 0 0 0 0 0 0 0 0
0 0 0 0 0 0 0 0 0 0
0 0 0 0 0 0 0 0 0 0
0 0 0 0 0 0 0 0 0 0
0 0 0 0 0 0 0 0 0 0
0 0 0 0 0 0 0 0 0 0
0 0 0 0 0 0 0 0 0 0
0 0 0 0 0 0 0 0 0 0
0 0 0 0 0 0 0 0 0 0
0 0 0 0 0 0 0 0 0 0
0 0 0 0 0 0 0 0 0 0
0 0 0 0 0 0 0 0 0 0
0 0 0 0 0 0 0 0 0 
XCH3OHfuel 1 840 float
0.832586 0.833641 0.833923 0.833508 0.833353 0.833905 0.833955 0.833467 0.833401 0.833929 0.833947
0.83344 0.833419 0.833936 0.833936 0.833419 0.83344 0.833947 0.833929 0.833401 0.833467
0.833955 0.833905 0.833353 0.833508 0.833923 0.833642 0.832588 0.832805 0.833754 0.834005
0.833628 0.833484 0.833988 0.834036 0.833592 0.833529 0.834011 0.834028 0.833566 0.833546
0.834017 0.834017 0.833546 0.833567 0.834028 0.834011 0.833529 0.833592 0.834036 0.833989
0.833484 0.833628 0.834005 0.833754 0.832806 0.833015 0.833865 0.834086 0.833743 0.833611
0.834071 0.834115 0.833713 0.833653 0.834091 0.834108 0.833689 0.833669 0.834097 0.834097
0.833669 0.833689 0.834108 0.834091 0.833653 0.833713 0.834115 0.834071 0.833611 0.833743
0.834086 0.833865 0.833016 0.833214 0.833971 0.834164 0.833853 0.833733 0.834151 0.834191
0.833828 0.833771 0.834169 0.834185 0.833806 0.833786 0.834175 0.834175 0.833786 0.833806
0.834185 0.834169 0.833771 0.833828 0.834191 0.834151 0.833733 0.833853 0.834165 0.833972
0.833216 0.833401 0.834072 0.83424 0.833956 0.833849 0.834228 0.834265 0.833936 0.833883
0.834244 0.834259 0.833916 0.833897 0.834249 0.834249 0.833897 0.833916 0.834259 0.834244
0.833884 0.833936 0.834265 0.834228 0.833849 0.833956 0.83424 0.834073 0.833402 0.833573
0.834167 0.834311 0.834053 0.833958 0.834301 0.834334 0.834038 0.833988 0.834315 0.834329
0.834019 0.834001 0.83432 0.83432 0.834001 0.83402 0.834329 0.834315 0.833989 0.834037
0.834334 0.834301 0.833958 0.834053 0.834312 0.834167 0.833574 0.833731 0.834254 0.834379
0.834142 0.834059 0.83437 0.834399 0.834131 0.834086 0.834382 0.834395 0.834115 0.834098
0.834386 0.834386 0.834098 0.834115 0.834395 0.834382 0.834086 0.834131 0.834399 0.83437
0.834059 0.834142 0.834379 0.834255 0.833731 0.833873 0.834335 0.834441 0.834225 0.834153
0.834434 0.83446 0.834218 0.834176 0.834444 0.834456 0.834203 0.834187 0.834448 0.834448
0.834187 0.834203 0.834456 0.834445 0.834177 0.834218 0.83446 0.834434 0.834153 0.834225
0.834442 0.834336 0.833874 0.834002 0.834409 0.834499 0.834301 0.834239 0.834493 0.834516
0.834297 0.834259 0.834502 0.834512 0.834284 0.834269 0.834505 0.834505 0.834269 0.834284
0.834512 0.834502 0.83426 0.834297 0.834516 0.834493 0.834239 0.834301 0.834499 0.834409
0.834002 0.834117 0.834476 0.834553 0.834371 0.834318 0.834548 0.834568 0.834369 0.834335
0.834555 0.834564 0.834358 0.834344 0.834558 0.834558 0.834344 0.834358 0.834564 0.834555
0.834335 0.834369 0.834568 0.834548 0.834318 0.834371 0.834553 0.834476 0.834118 0.83422
0.834537 0.834601 0.834434 0.83439 0.834597 0.834615 0.834435 0.834404 0.834603 0.834612
0.834424 0.834412 0.834606 0.834606 0.834412 0.834424 0.834612 0.834603 0.834404 0.834435
0.834615 0.834597 0.83439 0.834434 0.834601 0.834537 0.83422 0.834311 0.834591 0.834645
0.834492 0.834455 0.834642 0.834657 0.834494 0.834467 0.834647 0.834654 0.834485 0.834474
0.834649 0.834649 0.834474 0.834485 0.834654 0.834647 0.834467 0.834494 0.834657 0.834642
0.834455 0.834492 0.834645 0.834591 0.834312 0.834392 0.834639 0.834684 0.834544 0.834513
0.834682 0.834695 0.834547 0.834523 0.834686 0.834693 0.83454 0.834529 0.834688 0.834688
0.834529 0.83454 0.834693 0.834686 0.834523 0.834547 0.834695 0.834682 0.834513 0.834544
0.834684 0.834639 0.834393 0.834464 0.834682 0.834719 0.834591 0.834566 0.834718 0.834729
0.834596 0.834575 0.834721 0.834727 0.834589 0.83458 0.834723 0.834723 0.83458 0.834589
0.834727 0.834721 0.834575 0.834596 0.834729 0.834718 0.834566 0.834591 0.834719 0.834682
0.834464 0.834527 0.834719 0.83475 0.834634 0.834614 0.83475 0.834759 0.834639 0.83462
0.834753 0.834758 0.834633 0.834625 0.834754 0.834754 0.834625 0.834633 0.834758 0.834753
0.83462 0.834639 0.834759 0.83475 0.834614 0.834634 0.83475 0.834719 0.834527 0.834583
0.834752 0.834778 0.834672 0.834656 0.834778 0.834786 0.834677 0.834661 0.83478 0.834784
0.834672 0.834665 0.834782 0.834782 0.834665 0.834672 0.834784 0.83478 0.834661 0.834677
0.834786 0.834778 0.834656 0.834672 0.834778 0.834752 0.834583 0.834631 0.83478 0.834802
0.834706 0.834693 0.834803 0.834809 0.834711 0.834697 0.834804 0.834808 0.834707 0.834701
0.834805 0.834805 0.834701 0.834707 0.834808 0.834804 0.834697 0.834712 0.834809 0.834803
0.834693 0.834706 0.834802 0.83478 0.834632 0.834674 0.834805 0.834823 0.834736 0.834726
0.834824 0.83483 0.834742 0.834729 0.834825 0.834828 0.834738 0.834733 0.834826 0.834826
0.834733 0.834738 0.834828 0.834825 0.834729 0.834742 0.83483 0.834824 0.834727 0.834736
0.834823 0.834805 0.834674 0.834711 0.834826 0.834841 0.834763 0.834755 0.834843 0.834847
0.834768 0.834758 0.834843 0.834846 0.834765 0.83476 0.834844 0.834844 0.83476 0.834765
0.834846 0.834843 0.834758 0.834768 0.834847 0.834843 0.834755 0.834763 0.834841 0.834826
0.834711 0.834742 0.834844 0.834856 0.834786 0.834781 0.834858 0.834862 0.834792 0.834782
0.834859 0.834861 0.834789 0.834785 0.834859 0.834859 0.834785 0.834789 0.834861 0.834859
0.834782 0.834792 0.834862 0.834858 0.834781 0.834786 0.834856 0.834844 0.834742 0.834769
0.834858 0.834869 0.834806 0.834802 0.834871 0.834875 0.834812 0.834803 0.834872 0.834874
0.834809 0.834806 0.834872 0.834872 0.834805 0.834809 0.834874 0.834872 0.834803 0.834812
0.834875 0.834872 0.834802 0.834806 0.834869 0.834859 0.83477 0.834792 0.834871 0.83488
0.834823 0.834821 0.834882 0.834885 0.834828 0.834821 0.834882 0.834884 0.834826 0.834823
0.834883 0.834883 0.834823 0.834826 0.834884 0.834882 0.834821 0.834829 0.834885 0.834882
0.834821 0.834823 0.83488 0.834871 0.834792 0.834811 0.834881 0.834888 0.834838 0.834836
0.834891 0.834893 0.834843 0.834836 0.834891 0.834892 0.834841 0.834838 0.834891 0.834891
0.834838 0.834841 0.834892 0.834891 0.834836 0.834843 0.834893 0.834891 0.834836 0.834838
0.834888 0.834881 0.834811 0.834827 0.834889 0.834895 0.834849 0.834849 0.834898 0.8349
0.834854 0.834849 0.834898 0.834899 0.834853 0.83485 0.834898 0.834898 0.83485 0.834853
0.834899 0.834898 0.834849 0.834854 0.8349 0.834898 0.834849 0.834849 0.834895 0.834889
0.834827 0.834839 0.834894 0.8349 0.834859 0.834859 0.834903 0.834905 0.834863 0.834858
0.834903 0.834904 0.834862 0.83486 0.834903 0.834903 0.83486 0.834862 0.834904 0.834903
0.834858 0.834864 0.834905 0.834903 0.834859 0.834859 0.8349 0.834894 0.834839 0.834848
0.834898 0.834904 0.834866 0.834866 0.834907 0.834908 0.834871 0.834866 0.834906 0.834907
0.834869 0.834867 0.834907 0.834907 0.834867 0.834869 0.834907 0.834906 0.834866 0.834871
0.834908 0.834907 0.834866 0.834866 0.834904 0.834898 0.834848 0.834854 0.834901 0.834906
0.834871 0.834871 0.834909 0.83491 0.834876 0.834871 0.834908 0.834909 0.834874 0.834872
0.834909 0.834909 0.834872 0.834874 0.834909 0.834908 0.834871 0.834876 0.83491 0.834909
0.834871 0.834871 0.834906 0.834901 0.834855 0.834859 0.834902 0.834907 0.834874 0.834875
0.83491 0.834911 0.834879 0.834875 0.83491 0.834911 0.834877 0.834876 0.83491 0.83491
0.834876 0.834877 0.834911 0.83491 0.834874 0.834879 0.834911 0.83491 0.834875 0.834874
0.834907 0.834902 0.834859 0.834861 0.834903 0.834907 0.834876 0.834877 0.834911 0.834912
0.83488 0.834876 0.83491 0.834911 0.834879 0.834877 0.83491 0.83491 0.834877 0.834879
0.834911 0.83491 0.834876 0.83488 0.834912 0.834911 0.834877 0.834876 0.834907 0.834903
0.834861 0.834862 0.834903 0.834907 0.834877 0.834877 0.83491 0.834912 0.834881 0.834877
0.83491 0.834911 0.83488 0.834878 0.83491 0.83491 0.834878 0.83488 0.834911 0.83491
0.834877 0.834881 0.834912 0.834911 0.834877 0.834877 0.834907 0.834903 0.834862 
rho 1 840 float
1.02648 1.02603 1.02591 1.02609 1.02615 1.02591 1.02589 1.02611 1.02614 1.0259 1.02589
1.02612 1.02613 1.0259 1.0259 1.02613 1.02612 1.02589 1.0259 1.02614 1.02611
1.02589 1.02591 1.02615 1.02609 1.02591 1.02603 1.02647 1.02639 1.02599 1.02589
1.02605 1.02611 1.02589 1.02587 1.02606 1.02609 1.02588 1.02588 1.02608 1.02608
1.02588 1.02588 1.02608 1.02608 1.02588 1.02588 1.02609 1.02606 1.02587 1.02589
1.02611 1.02605 1.02589 1.02599 1.02639 1.02631 1.02596 1.02587 1.02601 1.02606
1.02588 1.02586 1.02602 1.02605 1.02587 1.02586 1.02603 1.02604 1.02587 1.02587
1.02604 1.02603 1.02586 1.02587 1.02605 1.02602 1.02586 1.02588 1.02606 1.02601
1.02587 1.02596 1.02631 1.02624 1.02594 1.02586 1.02598 1.02603 1.02587 1.02585
1.02599 1.02601 1.02586 1.02585 1.026 1.02601 1.02586 1.02586 1.02601 1.026
1.02585 1.02586 1.02601 1.02599 1.02585 1.02587 1.02603 1.02598 1.02586 1.02594
1.02624 1.02618 1.02592 1.02586 1.02595 1.02599 1.02586 1.02585 1.02595 1.02598
1.02585 1.02585 1.02596 1.02597 1.02585 1.02585 1.02597 1.02596 1.02585 1.02585
1.02598 1.02595 1.02585 1.02586 1.02599 1.02595 1.02586 1.02592 1.02618 1.02612
1.02591 1.02585 1.02592 1.02596 1.02585 1.02585 1.02593 1.02594 1.02585 1.02585
1.02593 1.02594 1.02585 1.02585 1.02594 1.02593 1.02585 1.02585 1.02594 1.02593
1.02585 1.02585 1.02596 1.02592 1.02585 1.02591 1.02612 1.02606 1.0259 1.02585
1.02589 1.02593 1.02585 1.02585 1.0259 1.02592 1.02585 1.02585 1.02591 1.02591
1.02585 1.02585 1.02591 1.02591 1.02585 1.02585 1.02592 1.0259 1.02585 1.02585
1.02593 1.02589 1.02585 1.0259 1.02606 1.02602 1.02589 1.02586 1.02587 1.0259
1.02586 1.02585 1.02588 1.02589 1.02585 1.02585 1.02588 1.02589 1.02585 1.02585
1.02589 1.02588 1.02585 1.02585 1.02589 1.02588 1.02585 1.02586 1.0259 1.02587
1.02586 1.02589 1.02602 1.02598 1.02589 1.02586 1.02585 1.02588 1.02586 1.02585
1.02586 1.02587 1.02586 1.02586 1.02586 1.02587 1.02586 1.02586 1.02587 1.02586
1.02586 1.02586 1.02587 1.02586 1.02585 1.02586 1.02588 1.02585 1.02586 1.02589
1.02598 1.02594 1.02589 1.02586 1.02584 1.02586 1.02586 1.02586 1.02584 1.02585
1.02586 1.02586 1.02585 1.02585 1.02586 1.02586 1.02585 1.02585 1.02586 1.02586
1.02585 1.02584 1.02586 1.02586 1.02586 1.02584 1.02586 1.02589 1.02594 1.02591
1.02589 1.02587 1.02582 1.02584 1.02587 1.02587 1.02583 1.02584 1.02587 1.02587
1.02583 1.02584 1.02587 1.02587 1.02584 1.02583 1.02587 1.02587 1.02584 1.02583
1.02587 1.02587 1.02584 1.02582 1.02587 1.02589 1.02591 1.02588 1.02589 1.02587
1.02581 1.02583 1.02587 1.02587 1.02581 1.02582 1.02587 1.02587 1.02582 1.02582
1.02587 1.02587 1.02582 1.02582 1.02587 1.02587 1.02582 1.02581 1.02587 1.02587
1.02583 1.02581 1.02587 1.02589 1.02588 1.02586 1.02589 1.02588 1.0258 1.02581
1.02588 1.02587 1.0258 1.02581 1.02588 1.02588 1.0258 1.02581 1.02588 1.02588
1.02581 1.0258 1.02588 1.02588 1.02581 1.0258 1.02587 1.02588 1.02581 1.0258
1.02588 1.02589 1.02586 1.02584 1.02589 1.02588 1.02579 1.0258 1.02588 1.02588
1.02579 1.0258 1.02588 1.02588 1.02579 1.02579 1.02588 1.02588 1.02579 1.02579
1.02588 1.02588 1.0258 1.02579 1.02588 1.02588 1.0258 1.02579 1.02588 1.02589
1.02584 1.02582 1.02589 1.02588 1.02578 1.02579 1.02588 1.02588 1.02578 1.02578
1.02588 1.02588 1.02578 1.02578 1.02588 1.02588 1.02578 1.02578 1.02588 1.02588
1.02578 1.02578 1.02588 1.02588 1.02579 1.02578 1.02588 1.02589 1.02582 1.0258
1.02588 1.02587 1.02577 1.02577 1.02587 1.02587 1.02577 1.02577 1.02588 1.02588
1.02577 1.02577 1.02588 1.02588 1.02577 1.02577 1.02588 1.02588 1.02577 1.02577
1.02587 1.02587 1.02577 1.02577 1.02587 1.02588 1.0258 1.02579 1.02587 1.02587
1.02576 1.02576 1.02587 1.02587 1.02576 1.02576 1.02587 1.02587 1.02576 1.02576
1.02587 1.02587 1.02576 1.02576 1.02587 1.02587 1.02576 1.02576 1.02587 1.02587
1.02576 1.02576 1.02587 1.02587 1.02579 1.02577 1.02587 1.02586 1.02575 1.02575
1.02586 1.02586 1.02575 1.02575 1.02586 1.02586 1.02575 1.02575 1.02586 1.02586
1.02575 1.02575 1.02586 1.02586 1.02575 1.02575 1.02586 1.02586 1.02575 1.02575
1.02586 1.02587 1.02577 1.02576 1.02585 1.02585 1.02574 1.02574 1.02585 1.02585
1.02574 1.02574 1.02585 1.02585 1.02574 1.02574 1.02585 1.02585 1.02574 1.02574
1.02585 1.02585 1.02574 1.02574 1.02585 1.02585 1.02574 1.02574 1.02585 1.02585
1.02576 1.02574 1.02584 1.02584 1.02572 1.02573 1.02584 1.02584 1.02572 1.02573
1.02584 1.02584 1.02573 1.02573 1.02584 1.02584 1.02573 1.02573 1.02584 1.02584
1.02573 1.02572 1.02584 1.02584 1.02573 1.02572 1.02584 1.02584 1.02574 1.02573
1.02583 1.02582 1.02571 1.02571 1.02582 1.02582 1.02571 1.02572 1.02582 1.02582
1.02571 1.02571 1.02582 1.02582 1.02571 1.02571 1.02582 1.02582 1.02572 1.02571
1.02582 1.02582 1.02571 1.02571 1.02582 1.02583 1.02573 1.02571 1.02581 1.0258
1.0257 1.0257 1.0258 1.0258 1.0257 1.0257 1.0258 1.0258 1.0257 1.0257
1.02581 1.02581 1.0257 1.0257 1.0258 1.0258 1.0257 1.0257 1.0258 1.0258
1.0257 1.0257 1.0258 1.02581 1.02571 1.0257 1.02579 1.02578 1.02569 1.02569
1.02578 1.02578 1.02569 1.02569 1.02578 1.02578 1.02569 1.02569 1.02578 1.02578
1.02569 1.02569 1.02578 1.02578 1.02569 1.02569 1.02578 1.02578 1.02569 1.02569
1.02578 1.02579 1.0257 1.02569 1.02576 1.02576 1.02568 1.02568 1.02576 1.02576
1.02568 1.02568 1.02576 1.02576 1.02568 1.02568 1.02576 1.02576 1.02568 1.02568
1.02576 1.02576 1.02568 1.02568 1.02576 1.02576 1.02568 1.02568 1.02576 1.02576
1.02569 1.02567 1.02574 1.02574 1.02566 1.02567 1.02574 1.02574 1.02566 1.02567
1.02574 1.02574 1.02567 1.02567 1.02574 1.02574 1.02567 1.02567 1.02574 1.02574
1.02567 1.02566 1.02574 1.02574 1.02567 1.02566 1.02574 1.02574 1.02567 1.02566
1.02571 1.02571 1.02565 1.02565 1.02571 1.02571 1.02565 1.02565 1.02571 1.02571
1.02565 1.02565 1.02571 1.02571 1.02565 1.02565 1.02571 1.02571 1.02565 1.02565
1.02571 1.02571 1.02565 1.02565 1.02571 1.02571 1.02566 1.02565 1.02568 1.02568
1.02564 1.02564 1.02568 1.02568 1.02564 1.02564 1.02568 1.02568 1.02564 1.02564
1.02568 1.02568 1.02564 1.02564 1.02568 1.02568 1.02564 1.02564 1.02568 1.02568
1.02564 1.02564 1.02568 1.02568 1.02565 1.02563 1.02566 1.02566 1.02563 1.02563
1.02566 1.02566 1.02562 1.02563 1.02566 1.02566 1.02563 1.02563 1.02566 1.02566
1.02563 1.02563 1.02566 1.02566 1.02563 1.02562 1.02566 1.02566 1.02563 1.02563
1.02566 1.02566 1.02563 1.02562 1.02563 1.02563 1.02561 1.02561 1.02563 1.02563
1.02561 1.02561 1.02563 1.02563 1.02561 1.02561 1.02563 1.02563 1.02561 1.02561
1.02563 1.02563 1.02561 1.02561 1.02563 1.02563 1.02561 1.02561 1.02563 1.02563
1.02562 1.02561 1.0256 1.0256 1.0256 1.0256 1.0256 1.0256 1.0256 1.0256
1.0256 1.0256 1.0256 1.0256 1.0256 1.0256 1.0256 1.0256 1.0256 1.0256
1.0256 1.0256 1.0256 1.0256 1.0256 1.0256 1.0256 1.0256 1.02561 
YCH3OHfuel 1 840 float
0.896524 0.898041 0.898447 0.89785 0.897627 0.898421 0.898493 0.897791 0.897695 0.898456 0.898482
0.897751 0.897722 0.898466 0.898466 0.897722 0.897752 0.898482 0.898456 0.897696 0.897791
0.898493 0.898421 0.897627 0.897851 0.898447 0.898042 0.896526 0.896838 0.898203 0.898565
0.898022 0.897815 0.898541 0.898609 0.897971 0.897879 0.898573 0.898598 0.897934 0.897905
0.898583 0.898583 0.897905 0.897934 0.898598 0.898573 0.89788 0.897971 0.898609 0.898541
0.897815 0.898022 0.898565 0.898204 0.896841 0.897141 0.898363 0.898681 0.898188 0.897998
0.89866 0.898723 0.898145 0.898058 0.898689 0.898713 0.89811 0.898081 0.898698 0.898698
0.898081 0.898111 0.898713 0.898689 0.898058 0.898144 0.898723 0.89866 0.897998 0.898188
0.898681 0.898364 0.897143 0.897427 0.898516 0.898794 0.898345 0.898174 0.898775 0.898833
0.89831 0.898228 0.898801 0.898824 0.898278 0.89825 0.898809 0.898809 0.89825 0.898279
0.898824 0.898802 0.898229 0.89831 0.898833 0.898775 0.898174 0.898346 0.898795 0.898517
0.897429 0.897696 0.898661 0.898903 0.898494 0.89834 0.898886 0.898939 0.898466 0.89839
0.898909 0.89893 0.898437 0.89841 0.898916 0.898916 0.89841 0.898437 0.89893 0.898909
0.89839 0.898466 0.898939 0.898886 0.898341 0.898494 0.898903 0.898662 0.897697 0.897943
0.898797 0.899006 0.898633 0.898497 0.898991 0.899039 0.898612 0.898541 0.899011 0.899031
0.898586 0.89856 0.899018 0.899018 0.89856 0.898586 0.899031 0.899012 0.898541 0.898612
0.899039 0.898991 0.898497 0.898634 0.899006 0.898798 0.897945 0.89817 0.898924 0.899103
0.898762 0.898643 0.89909 0.899132 0.898747 0.898682 0.899108 0.899126 0.898723 0.898699
0.899113 0.899113 0.898698 0.898723 0.899126 0.899108 0.898682 0.898747 0.899132 0.89909
0.898643 0.898763 0.899103 0.898924 0.898171 0.898375 0.89904 0.899193 0.898882 0.898778
0.899182 0.89922 0.898871 0.898812 0.899197 0.899214 0.89885 0.898827 0.899203 0.899203
0.898827 0.89885 0.899214 0.899197 0.898812 0.898871 0.89922 0.899182 0.898778 0.898882
0.899193 0.899041 0.898377 0.89856 0.899146 0.899276 0.898991 0.898902 0.899267 0.899301
0.898985 0.898931 0.89928 0.899295 0.898966 0.898945 0.899285 0.899285 0.898944 0.898966
0.899295 0.89928 0.898931 0.898985 0.899301 0.899267 0.898902 0.898991 0.899277 0.899147
0.898561 0.898726 0.899243 0.899353 0.899091 0.899015 0.899346 0.899375 0.899089 0.89904