# vtk DataFile Version 2.0
fuelOutlet
ASCII
DATASET POLYDATA
POINTS 1085 float
0.0039544 0.001 0.022 0.0040044 0.001 0.022 0.0040044 0.0015 0.022 0.0039544 0.0015
0.022 0.0040044 0.002 0.022 0.0039544 0.002 0.022 0.0040044 0.0025 0.022
0.0039544 0.0025 0.022 0.0040044 0.003 0.022 0.0039544 0.003 0.022 0.0039544
0.004 0.022 0.0040044 0.004 0.022 0.0040044 0.0045 0.022 0.0039544 0.0045
0.022 0.0040044 0.005 0.022 0.0039544 0.005 0.022 0.0040044 0.0055 0.022
0.0039544 0.0055 0.022 0.0040044 0.006 0.022 0.0039544 0.006 0.022 0.0039544
0.007 0.022 0.0040044 0.007 0.022 0.0040044 0.0075 0.022 0.0039544 0.0075
0.022 0.0040044 0.008 0.022 0.0039544 0.008 0.022 0.0040044 0.0085 0.022
0.0039544 0.0085 0.022 0.0040044 0.009 0.022 0.0039544 0.009 0.022 0.0039544
0.01 0.022 0.0040044 0.01 0.022 0.0040044 0.0105 0.022 0.0039544 0.0105
0.022 0.0040044 0.011 0.022 0.0039544 0.011 0.022 0.0040044 0.0115 0.022
0.0039544 0.0115 0.022 0.0040044 0.012 0.022 0.0039544 0.012 0.022 0.0039544
0.013 0.022 0.0040044 0.013 0.022 0.0040044 0.0135 0.022 0.0039544 0.0135
0.022 0.0040044 0.014 0.022 0.0039544 0.014 0.022 0.0040044 0.0145 0.022
0.0039544 0.0145 0.022 0.0040044 0.015 0.022 0.0039544 0.015 0.022 0.0039544
0.016 0.022 0.0040044 0.016 0.022 0.0040044 0.0165 0.022 0.0039544 0.0165
0.022 0.0040044 0.017 0.022 0.0039544 0.017 0.022 0.0040044 0.0175 0.022
0.0039544 0.0175 0.022 0.0040044 0.018 0.022 0.0039544 0.018 0.022 0.0039544
0.019 0.022 0.0040044 0.019 0.022 0.0040044 0.0195 0.022 0.0039544 0.0195
0.022 0.0040044 0.02 0.022 0.0039544 0.02 0.022 0.0040044 0.0205 0.022
0.0039544 0.0205 0.022 0.0040044 0.021 0.022 0.0039544 0.021 0.022 0.0040544
0.001 0.022 0.0040544 0.0015 0.022 0.0040544 0.002 0.022 0.0040544 0.0025
0.022 0.0040544 0.003 0.022 0.0040544 0.004 0.022 0.0040544 0.0045 0.022
0.0040544 0.005 0.022 0.0040544 0.0055 0.022 0.0040544 0.006 0.022 0.0040544
0.007 0.022 0.0040544 0.0075 0.022 0.0040544 0.008 0.022 0.0040544 0.0085
0.022 0.0040544 0.009 0.022 0.0040544 0.01 0.022 0.0040544 0.0105 0.022
0.0040544 0.011 0.022 0.0040544 0.0115 0.022 0.0040544 0.012 0.022 0.0040544
0.013 0.022 0.0040544 0.0135 0.022 0.0040544 0.014 0.022 0.0040544 0.0145
0.022 0.0040544 0.015 0.022 0.0040544 0.016 0.022 0.0040544 0.0165 0.022
0.0040544 0.017 0.022 0.0040544 0.0175 0.022 0.0040544 0.018 0.022 0.0040544
0.019 0.022 0.0040544 0.0195 0.022 0.0040544 0.02 0.022 0.0040544 0.0205
0.022 0.0040544 0.021 0.022 0.0041044 0.001 0.022 0.0041044 0.0015 0.022
0.0041044 0.002 0.022 0.0041044 0.0025 0.022 0.0041044 0.003 0.022 0.0041044
0.004 0.022 0.0041044 0.0045 0.022 0.0041044 0.005 0.022 0.0041044 0.0055
0.022 0.0041044 0.006 0.022 0.0041044 0.007 0.022 0.0041044 0.0075 0.022
0.0041044 0.008 0.022 0.0041044 0.0085 0.022 0.0041044 0.009 0.022 0.0041044
0.01 0.022 0.0041044 0.0105 0.022 0.0041044 0.011 0.022 0.0041044 0.0115
0.022 0.0041044 0.012 0.022 0.0041044 0.013 0.022 0.0041044 0.0135 0.022
0.0041044 0.014 0.022 0.0041044 0.0145 0.022 0.0041044 0.015 0.022 0.0041044
0.016 0.022 0.0041044 0.0165 0.022 0.0041044 0.017 0.022 0.0041044 0.0175
0.022 0.0041044 0.018 0.022 0.0041044 0.019 0.022 0.0041044 0.0195 0.022
0.0041044 0.02 0.022 0.0041044 0.0205 0.022 0.0041044 0.021 0.022 0.0041544
0.001 0.022 0.0041544 0.0015 0.022 0.0041544 0.002 0.022 0.0041544 0.0025
0.022 0.0041544 0.003 0.022 0.0041544 0.004 0.022 0.0041544 0.0045 0.022
0.0041544 0.005 0.022 0.0041544 0.0055 0.022 0.0041544 0.006 0.022 0.0041544
0.007 0.022 0.0041544 0.0075 0.022 0.0041544 0.008 0.022 0.0041544 0.0085
0.022 0.0041544 0.009 0.022 0.0041544 0.01 0.022 0.0041544 0.0105 0.022
0.0041544 0.011 0.022 0.0041544 0.0115 0.022 0.0041544 0.012 0.022 0.0041544
0.013 0.022 0.0041544 0.0135 0.022 0.0041544 0.014 0.022 0.0041544 0.0145
0.022 0.0041544 0.015 0.022 0.0041544 0.016 0.022 0.0041544 0.0165 0.022
0.0041544 0.017 0.022 0.0041544 0.0175 0.022 0.0041544 0.018 0.022 0.0041544
0.019 0.022 0.0041544 0.0195 0.022 0.0041544 0.02 0.022 0.0041544 0.0205
0.022 0.0041544 0.021 0.022 0.0042044 0.001 0.022 0.0042044 0.0015 0.022
0.0042044 0.002 0.022 0.0042044 0.0025 0.022 0.0042044 0.003 0.022 0.0042044
0.004 0.022 0.0042044 0.0045 0.022 0.0042044 0.005 0.022 0.0042044 0.0055
0.022 0.0042044 0.006 0.022 0.0042044 0.007 0.022 0.0042044 0.0075 0.022
0.0042044 0.008 0.022 0.0042044 0.0085 0.022 0.0042044 0.009 0.022 0.0042044
0.01 0.022 0.0042044 0.0105 0.022 0.0042044 0.011 0.022 0.0042044 0.0115
0.022 0.0042044 0.012 0.022 0.0042044 0.013 0.022 0.0042044 0.0135 0.022
0.0042044 0.014 0.022 0.0042044 0.0145 0.022 0.0042044 0.015 0.022 0.0042044
0.016 0.022 0.0042044 0.0165 0.022 0.0042044 0.017 0.022 0.0042044 0.0175
0.022 0.0042044 0.018 0.022 0.0042044 0.019 0.022 0.0042044 0.0195 0.022
0.0042044 0.02 0.022 0.0042044 0.0205 0.022 0.0042044 0.021 0.022 0.0042544
0.001 0.022 0.0042544 0.0015 0.022 0.0042544 0.002 0.022 0.0042544 0.0025
0.022 0.0042544 0.003 0.022 0.0042544 0.004 0.022 0.0042544 0.0045 0.022
0.0042544 0.005 0.022 0.0042544 0.0055 0.022 0.0042544 0.006 0.022 0.0042544
0.007 0.022 0.0042544 0.0075 0.022 0.0042544 0.008 0.022 0.0042544 0.0085
0.022 0.0042544 0.009 0.022 0.0042544 0.01 0.022 0.0042544 0.0105 0.022
0.0042544 0.011 0.022 0.0042544 0.0115 0.022 0.0042544 0.012 0.022 0.0042544
0.013 0.022 0.0042544 0.0135 0.022 0.0042544 0.014 0.022 0.0042544 0.0145
0.022 0.0042544 0.015 0.022 0.0042544 0.016 0.022 0.0042544 0.0165 0.022
0.0042544 0.017 0.022 0.0042544 0.0175 0.022 0.0042544 0.018 0.022 0.0042544
0.019 0.022 0.0042544 0.0195 0.022 0.0042544 0.02 0.022 0.0042544 0.0205
0.022 0.0042544 0.021 0.022 0.0043044 0.001 0.022 0.0043044 0.0015 0.022
0.0043044 0.002 0.022 0.0043044 0.0025 0.022 0.0043044 0.003 0.022 0.0043044
0.004 0.022 0.0043044 0.0045 0.022 0.0043044 0.005 0.022 0.0043044 0.0055
0.022 0.0043044 0.006 0.022 0.0043044 0.007 0.022 0.0043044 0.0075 0.022
0.0043044 0.008 0.022 0.0043044 0.0085 0.022 0.0043044 0.009 0.022 0.0043044
0.01 0.022 0.0043044 0.0105 0.022 0.0043044 0.011 0.022 0.0043044 0.0115
0.022 0.0043044 0.012 0.022 0.0043044 0.013 0.022 0.0043044 0.0135 0.022
0.0043044 0.014 0.022 0.0043044 0.0145 0.022 0.0043044 0.015 0.022 0.0043044
0.016 0.022 0.0043044 0.0165 0.022 0.0043044 0.017 0.022 0.0043044 0.0175
0.022 0.0043044 0.018 0.022 0.0043044 0.019 0.022 0.0043044 0.0195 0.022
0.0043044 0.02 0.022 0.0043044 0.0205 0.022 0.0043044 0.021 0.022 0.0043544
0.001 0.022 0.0043544 0.0015 0.022 0.0043544 0.002 0.022 0.0043544 0.0025
0.022 0.0043544 0.003 0.022 0.0043544 0.004 0.022 0.0043544 0.0045 0.022
0.0043544 0.005 0.022 0.0043544 0.0055 0.022 0.0043544 0.006 0.022 0.0043544
0.007 0.022 0.0043544 0.0075 0.022 0.0043544 0.008 0.022 0.0043544 0.0085
0.022 0.0043544 0.009 0.022 0.0043544 0.01 0.022 0.0043544 0.0105 0.022
0.0043544 0.011 0.022 0.0043544 0.0115 0.022 0.0043544 0.012 0.022 0.0043544
0.013 0.022 0.0043544 0.0135 0.022 0.0043544 0.014 0.022 0.0043544 0.0145
0.022 0.0043544 0.015 0.022 0.0043544 0.016 0.022 0.0043544 0.0165 0.022
0.0043544 0.017 0.022 0.0043544 0.0175 0.022 0.0043544 0.018 0.022 0.0043544
0.019 0.022 0.0043544 0.0195 0.022 0.0043544 0.02 0.022 0.0043544 0.0205
0.022 0.0043544 0.021 0.022 0.0044044 0.001 0.022 0.0044044 0.0015 0.022
0.0044044 0.002 0.022 0.0044044 0.0025 0.022 0.0044044 0.003 0.022 0.0044044
0.004 0.022 0.0044044 0.0045 0.022 0.0044044 0.005 0.022 0.0044044 0.0055
0.022 0.0044044 0.006 0.022 0.0044044 0.007 0.022 0.0044044 0.0075 0.022
0.0044044 0.008 0.022 0.0044044 0.0085 0.022 0.0044044 0.009 0.022 0.0044044
0.01 0.022 0.0044044 0.0105 0.022 0.0044044 0.011 0.022 0.0044044 0.0115
0.022 0.0044044 0.012 0.022 0.0044044 0.013 0.022 0.0044044 0.0135 0.022
0.0044044 0.014 0.022 0.0044044 0.0145 0.022 0.0044044 0.015 0.022 0.0044044
0.016 0.022 0.0044044 0.0165 0.022 0.0044044 0.017 0.022 0.0044044 0.0175
0.022 0.0044044 0.018 0.022 0.0044044 0.019 0.022 0.0044044 0.0195 0.022
0.0044044 0.02 0.022 0.0044044 0.0205 0.022 0.0044044 0.021 0.022 0.0044544
0.001 0.022 0.0044544 0.0015 0.022 0.0044544 0.002 0.022 0.0044544 0.0025
0.022 0.0044544 0.003 0.022 0.0044544 0.004 0.022 0.0044544 0.0045 0.022
0.0044544 0.005 0.022 0.0044544 0.0055 0.022 0.0044544 0.006 0.022 0.0044544
0.007 0.022 0.0044544 0.0075 0.022 0.0044544 0.008 0.022 0.0044544 0.0085
0.022 0.0044544 0.009 0.022 0.0044544 0.01 0.022 0.0044544 0.0105 0.022
0.0044544 0.011 0.022 0.0044544 0.0115 0.022 0.0044544 0.012 0.022 0.0044544
0.013 0.022 0.0044544 0.0135 0.022 0.0044544 0.014 0.022 0.0044544 0.0145
0.022 0.0044544 0.015 0.022 0.0044544 0.016 0.022 0.0044544 0.0165 0.022
0.0044544 0.017 0.022 0.0044544 0.0175 0.022 0.0044544 0.018 0.022 0.0044544
0.019 0.022 0.0044544 0.0195 0.022 0.0044544 0.02 0.022 0.0044544 0.0205
0.022 0.0044544 0.021 0.022 0.0045044 0.001 0.022 0.0045044 0.0015 0.022
0.0045044 0.002 0.022 0.0045044 0.0025 0.022 0.0045044 0.003 0.022 0.0045044
0.004 0.022 0.0045044 0.0045 0.022 0.0045044 0.005 0.022 0.0045044 0.0055
0.022 0.0045044 0.006 0.022 0.0045044 0.007 0.022 0.0045044 0.0075 0.022
0.0045044 0.008 0.022 0.0045044 0.0085 0.022 0.0045044 0.009 0.022 0.0045044
0.01 0.022 0.0045044 0.0105 0.022 0.0045044 0.011 0.022 0.0045044 0.0115
0.022 0.0045044 0.012 0.022 0.0045044 0.013 0.022 0.0045044 0.0135 0.022
0.0045044 0.014 0.022 0.0045044 0.0145 0.022 0.0045044 0.015 0.022 0.0045044
0.016 0.022 0.0045044 0.0165 0.022 0.0045044 0.017 0.022 0.0045044 0.0175
0.022 0.0045044 0.018 0.022 0.0045044 0.019 0.022 0.0045044 0.0195 0.022
0.0045044 0.02 0.022 0.0045044 0.0205 0.022 0.0045044 0.021 0.022 0.0045544
0.001 0.022 0.0045544 0.0015 0.022 0.0045544 0.002 0.022 0.0045544 0.0025
0.022 0.0045544 0.003 0.022 0.0045544 0.004 0.022 0.0045544 0.0045 0.022
0.0045544 0.005 0.022 0.0045544 0.0055 0.022 0.0045544 0.006 0.022 0.0045544
0.007 0.022 0.0045544 0.0075 0.022 0.0045544 0.008 0.022 0.0045544 0.0085
0.022 0.0045544 0.009 0.022 0.0045544 0.01 0.022 0.0045544 0.0105 0.022
0.0045544 0.011 0.022 0.0045544 0.0115 0.022 0.0045544 0.012 0.022 0.0045544
0.013 0.022 0.0045544 0.0135 0.022 0.0045544 0.014 0.022 0.0045544 0.0145
[...]
CELL_DATA 840
FIELD attributes 16
patchID 1 840 float
3 3 3 3 3 3 3 3 3 3 3
3 3 3 3 3 3 3 3 3 3
3 3 3 3 3 3 3 3 3 3
3 3 3 3 3 3 3 3 3 3
3 3 3 3 3 3 3 3 3 3
3 3 3 3 3 3 3 3 3 3
3 3 3 3 3 3 3 3 3 3
3 3 3 3 3 3 3 3 3 3
3 3 3 3 3 3 3 3 3 3
3 3 3 3 3 3 3 3 3 3
3 3 3 3 3 3 3 3 3 3
3 3 3 3 3 3 3 3 3 3
3 3 3 3 3 3 3 3 3 3
3 3 3 3 3 3 3 3 3 3
3 3 3 3 3 3 3 3 3 3
3 3 3 3 3 3 3 3 3 3
3 3 3 3 3 3 3 3 3 3
3 3 3 3 3 3 3 3 3 3
3 3 3 3 3 3 3 3 3 3
3 3 3 3 3 3 3 3 3 3
3 3 3 3 3 3 3 3 3 3
3 3 3 3 3 3 3 3 3 3
3 3 3 3 3 3 3 3 3 3
3 3 3 3 3 3 3 3 3 3
3 3 3 3 3 3 3 3 3 3
3 3 3 3 3 3 3 3 3 3
3 3 3 3 3 3 3 3 3 3
3 3 3 3 3 3 3 3 3 3
3 3 3 3 3 3 3 3 3 3
3 3 3 3 3 3 3 3 3 3
3 3 3 3 3 3 3 3 3 3
3 3 3 3 3 3 3 3 3 3
3 3 3 3 3 3 3 3 3 3
3 3 3 3 3 3 3 3 3 3
3 3 3 3 3 3 3 3 3 3
3 3 3 3 3 3 3 3 3 3
3 3 3 3 3 3 3 3 3 3
3 3 3 3 3 3 3 3 3 3
3 3 3 3 3 3 3 3 3 3
3 3 3 3 3 3 3 3 3 3
3 3 3 3 3 3 3 3 3 3
3 3 3 3 3 3 3 3 3 3
3 3 3 3 3 3 3 3 3 3
3 3 3 3 3 3 3 3 3 3
3 3 3 3 3 3 3 3 3 3
3 3 3 3 3 3 3 3 3 3
3 3 3 3 3 3 3 3 3 3
3 3 3 3 3 3 3 3 3 3
3 3 3 3 3 3 3 3 3 3
3 3 3 3 3 3 3 3 3 3
3 3 3 3 3 3 3 3 3 3
3 3 3 3 3 3 3 3 3 3
3 3 3 3 3 3 3 3 3 3
3 3 3 3 3 3 3 3 3 3
3 3 3 3 3 3 3 3 3 3
3 3 3 3 3 3 3 3 3 3
3 3 3 3 3 3 3 3 3 3
3 3 3 3 3 3 3 3 3 3
3 3 3 3 3 3 3 3 3 3
3 3 3 3 3 3 3 3 3 3
3 3 3 3 3 3 3 3 3 3
3 3 3 3 3 3 3 3 3 3
3 3 3 3 3 3 3 3 3 3
3 3 3 3 3 3 3 3 3 3
3 3 3 3 3 3 3 3 3 3
3 3 3 3 3 3 3 3 3 3
3 3 3 3 3 3 3 3 3 3
3 3 3 3 3 3 3 3 3 3
3 3 3 3 3 3 3 3 3 3
3 3 3 3 3 3 3 3 3 3
3 3 3 3 3 3 3 3 3 3
3 3 3 3 3 3 3 3 3 3
3 3 3 3 3 3 3 3 3 3
3 3 3 3 3 3 3 3 3 3
3 3 3 3 3 3 3 3 3 3
3 3 3 3 3 3 3 3 3 3
3 3 3 3 3 3 3 3 3 3
3 3 3 3 3 3 3 3 3 3
3 3 3 3 3 3 3 3 3 3
3 3 3 3 3 3 3 3 3 3
3 3 3 3 3 3 3 3 3 3
3 3 3 3 3 3 3 3 3 3
3 3 3 3 3 3 3 3 3 3
3 3 3 3 3 3 3 3 3 
diffH2Ofuel 1 840 float
0 0 0 0 0 0 0 0 0 0 0
0 0 0 0 0 0 0 0 0 0
0 0 0 0 0 0 0 0 0 0
0 0 0 0 0 0 0 0 0 0
0 0 0 0 0 0 0 0 0 0
0 0 0 0 0 0 0 0 0 0
0 0 0 0 0 0 0 0 0 0
0 0 0 0 0 0 0 0 0 0
0 0 0 0 0 0 0 0 0 0
0 0 0 0 0 0 0 0 0 0
0 0 0 0 0 0 0 0 0 0
0 0 0 0 0 0 0 0 0 0
0 0 0 0 0 0 0 0 0 0
0 0 0 0 0 0 0 0 0 0
0 0 0 0 0 0 0 0 0 0
0 0 0 0 0 0 0 0 0 0
0 0 0 0 0 0 0 0 0 0
0 0 0 0 0 0 0 0 0 0
0 0 0 0 0 0 0 0 0 0
0 0 0 0 0 0 0 0 0 0
0 0 0 0 0 0 0 0 0 0
0 0 0 0 0 0 0 0 0 0
0 0 0 0 0 0 0 0 0 0
0 0 0 0 0 0 0 0 0 0
0 0 0 0 0 0 0 0 0 0
0 0 0 0 0 0 0 0 0 0
0 0 0 0 0 0 0 0 0 0
0 0 0 0 0 0 0 0 0 0
0 0 0 0 0 0 0 0 0 0
0 0 0 0 0 0 0 0 0 0
0 0 0 0 0 0 0 0 0 0
0 0 0 0 0 0 0 0 0 0
0 0 0 0 0 0 0 0 0 0
0 0 0 0 0 0 0 0 0 0
0 0 0 0 0 0 0 0 0 0
0 0 0 0 0 0 0 0 0 0
0 0 0 0 0 0 0 0 0 0
0 0 0 0 0 0 0 0 0 0
0 0 0 0 0 0 0 0 0 0
0 0 0 0 0 0 0 0 0 0
0 0 0 0 0 0 0 0 0 0
0 0 0 0 0 0 0 0 0 0
0 0 0 0 0 0 0 0 0 0
0 0 0 0 0 0 0 0 0 0
0 0 0 0 0 0 0 0 0 0
0 0 0 0 0 0 0 0 0 0
0 0 0 0 0 0 0 0 0 0
0 0 0 0 0 0 0 0 0 0
0 0 0 0 0 0 0 0 0 0
0 0 0 0 0 0 0 0 0 0
0 0 0 0 0 0 0 0 0 0
0 0 0 0 0 0 0 0 0 0
0 0 0 0 0 0 0 0 0 0
0 0 0 0 0 0 0 0 0 0
0 0 0 0 0 0 0 0 0 0
0 0 0 0 0 0 0 0 0 0
0 0 0 0 0 0 0 0 0 0
0 0 0 0 0 0 0 0 0 0
0 0 0 0 0 0 0 0 0 0
0 0 0 0 0 0 0 0 0 0
0 0 0 0 0 0 0 0 0 0
0 0 0 0 0 0 0 0 0 0
0 0 0 0 0 0 0 0 0 0
0 0 0 0 0 0 0 0 0 0
0 0 0 0 0 0 0 0 0 0
0 0 0 0 0 0 0 0 0 0
0 0 0 0 0 0 0 0 0 0
0 0 0 0 0 0 0 0 0 0
0 0 0 0 0 0 0 0 0 0
0 0 0 0 0 0 0 0 0 0
0 0 0 0 0 0 0 0 0 0
0 0 0 0 0 0 0 0 0 0
0 0 0 0 0 0 0 0 0 0
0 0 0 0 0 0 0 0 0 0
0 0 0 0 0 0 0 0 0 0
0 0 0 0 0 0 0 0 0 0
0 0 0 0 0 0 0 0 0 0
0 0 0 0 0 0 0 0 0 0
0 0 0 0 0 0 0 0 0 0
0 0 0 0 0 0 0 0 0 0
0 0 0 0 0 0 0 0 0 0
0 0 0 0 0 0 0 0 0 0
0 0 0 0 0 0 0 0 0 0
0 0 0 0 0 0 0 0 0 
XCH3OHfuel 1 840 float
0.832618 0.833833 0.834007 0.833517 0.833398 0.834009 0.834037 0.833494 0.833439 0.834018 0.834031
0.833475 0.833455 0.834023 0.834023 0.833455 0.833475 0.834031 0.834018 0.833439 0.833494
0.834037 0.834009 0.833399 0.833518 0.834007 0.833834 0.832619 0.832825 0.833919 0.83408
0.83363 0.833522 0.834082 0.834109 0.83361 0.833559 0.834091 0.834104 0.833593 0.833574
0.834096 0.834096 0.833574 0.833593 0.834104 0.834091 0.833559 0.83361 0.834109 0.834083
0.833523 0.833631 0.83408 0.83392 0.832827 0.833024 0.834005 0.834152 0.833739 0.833643
0.834155 0.83418 0.833723 0.833676 0.834163 0.834175 0.833707 0.833689 0.834168 0.834168
0.833689 0.833707 0.834175 0.834163 0.833676 0.833723 0.83418 0.834155 0.833643 0.833739
0.834153 0.834005 0.833026 0.833212 0.834088 0.834223 0.833843 0.833758 0.834226 0.834249
0.83383 0.833787 0.834233 0.834244 0.833816 0.833799 0.834238 0.834238 0.8338 0.833816
0.834244 0.834233 0.833787 0.83383 0.834249 0.834226 0.833758 0.833843 0.834223 0.834089
0.833213 0.833388 0.834169 0.83429 0.833941 0.833867 0.834294 0.834315 0.833932 0.833892
0.834301 0.83431 0.833919 0.833904 0.834305 0.834305 0.833904 0.833919 0.83431 0.834301
0.833892 0.833932 0.834315 0.834294 0.833867 0.833942 0.834291 0.83417 0.833389 0.833551
0.834246 0.834355 0.834034 0.833969 0.834359 0.834377 0.834028 0.833992 0.834365 0.834373
0.834016 0.834002 0.834368 0.834368 0.834002 0.834016 0.834373 0.834365 0.833992 0.834028
0.834377 0.834359 0.83397 0.834034 0.834355 0.834247 0.833552 0.833701 0.834319 0.834415
0.834121 0.834065 0.83442 0.834436 0.834117 0.834084 0.834425 0.834433 0.834106 0.834094
0.834428 0.834428 0.834094 0.834106 0.834433 0.834425 0.834084 0.834117 0.834436 0.83442
0.834065 0.834121 0.834415 0.83432 0.833702 0.833838 0.834387 0.834472 0.834201 0.834154
0.834477 0.834491 0.834199 0.834171 0.834481 0.834488 0.83419 0.83418 0.834484 0.834484
0.83418 0.83419 0.834488 0.834481 0.834171 0.834199 0.834491 0.834477 0.834154 0.834201
0.834472 0.834388 0.833839 0.833963 0.834451 0.834525 0.834276 0.834237 0.83453 0.834543
0.834276 0.834251 0.834534 0.83454 0.834268 0.834259 0.834536 0.834536 0.834259 0.834268
0.83454 0.834534 0.834251 0.834276 0.834543 0.83453 0.834237 0.834276 0.834525 0.834451
0.833964 0.834076 0.834509 0.834574 0.834345 0.834312 0.834579 0.83459 0.834346 0.834324
0.834582 0.834587 0.834339 0.834331 0.834584 0.834584 0.834331 0.834339 0.834587 0.834582
0.834324 0.834346 0.83459 0.834579 0.834312 0.834345 0.834574 0.834509 0.834077 0.834178
0.834562 0.834618 0.834409 0.834382 0.834624 0.834633 0.834411 0.834392 0.834626 0.834631
0.834405 0.834398 0.834628 0.834628 0.834398 0.834405 0.834631 0.834626 0.834392 0.834411
0.834633 0.834624 0.834382 0.834409 0.834618 0.834563 0.834179 0.83427 0.834611 0.834659
0.834467 0.834445 0.834664 0.834672 0.83447 0.834453 0.834666 0.83467 0.834465 0.834459
0.834668 0.834668 0.834459 0.834465 0.83467 0.834666 0.834453 0.83447 0.834672 0.834664
0.834445 0.834467 0.834659 0.834611 0.83427 0.834352 0.834654 0.834695 0.83452 0.834503
0.834701 0.834707 0.834524 0.834509 0.834702 0.834706 0.83452 0.834515 0.834704 0.834704
0.834515 0.83452 0.834706 0.834702 0.834509 0.834524 0.834707 0.834701 0.834503 0.83452
0.834695 0.834654 0.834352 0.834425 0.834693 0.834728 0.834569 0.834555 0.834733 0.834739
0.834573 0.834561 0.834735 0.834738 0.834569 0.834565 0.834736 0.834736 0.834565 0.834569
0.834738 0.834735 0.834561 0.834573 0.834739 0.834733 0.834555 0.834569 0.834728 0.834693
0.834426 0.834491 0.834727 0.834757 0.834612 0.834602 0.834762 0.834767 0.834617 0.834607
0.834764 0.834766 0.834614 0.83461 0.834765 0.834765 0.83461 0.834614 0.834766 0.834764
0.834607 0.834617 0.834767 0.834762 0.834602 0.834612 0.834757 0.834727 0.834491 0.834549
0.834757 0.834783 0.834652 0.834644 0.834788 0.834792 0.834657 0.834648 0.834789 0.834791
0.834654 0.834651 0.83479 0.83479 0.834651 0.834654 0.834791 0.834789 0.834648 0.834657
0.834792 0.834788 0.834644 0.834652 0.834783 0.834758 0.834549 0.8346 0.834784 0.834806
0.834688 0.834682 0.834811 0.834814 0.834692 0.834685 0.834812 0.834813 0.83469 0.834688
0.834812 0.834812 0.834688 0.83469 0.834813 0.834812 0.834685 0.834692 0.834814 0.834811
0.834682 0.834688 0.834806 0.834784 0.8346 0.834645 0.834807 0.834826 0.834719 0.834715
0.83483 0.834833 0.834724 0.834718 0.834831 0.834832 0.834722 0.83472 0.834832 0.834832
0.83472 0.834722 0.834832 0.834831 0.834718 0.834724 0.834833 0.834831 0.834715 0.834719
0.834826 0.834807 0.834646 0.834685 0.834827 0.834843 0.834748 0.834745 0.834847 0.834849
0.834752 0.834747 0.834848 0.834849 0.834751 0.834749 0.834849 0.834849 0.834749 0.834751
0.834849 0.834848 0.834747 0.834752 0.834849 0.834847 0.834745 0.834748 0.834843 0.834827
0.834685 0.834719 0.834844 0.834858 0.834773 0.834771 0.834862 0.834864 0.834777 0.834773
0.834862 0.834863 0.834776 0.834774 0.834863 0.834863 0.834774 0.834776 0.834863 0.834862
0.834773 0.834777 0.834864 0.834862 0.834771 0.834773 0.834858 0.834844 0.834719 0.834748
0.834858 0.83487 0.834794 0.834793 0.834874 0.834876 0.834798 0.834795 0.834875 0.834875
0.834797 0.834796 0.834875 0.834875 0.834796 0.834797 0.834875 0.834875 0.834795 0.834798
0.834876 0.834874 0.834794 0.834794 0.83487 0.834858 0.834749 0.834773 0.83487 0.83488
0.834813 0.834813 0.834884 0.834885 0.834816 0.834814 0.834885 0.834885 0.834816 0.834815
0.834885 0.834885 0.834815 0.834816 0.834885 0.834885 0.834814 0.834816 0.834885 0.834884
0.834813 0.834813 0.83488 0.83487 0.834774 0.834794 0.834879 0.834888 0.834828 0.834829
0.834892 0.834893 0.834832 0.83483 0.834893 0.834893 0.834831 0.834831 0.834893 0.834893
0.834831 0.834831 0.834893 0.834893 0.83483 0.834832 0.834893 0.834892 0.834829 0.834828
0.834888 0.834879 0.834795 0.834811 0.834887 0.834895 0.834841 0.834842 0.834899 0.834899
0.834845 0.834843 0.834899 0.834899 0.834844 0.834844 0.834899 0.834899 0.834844 0.834844
0.834899 0.834899 0.834843 0.834845 0.834899 0.834899 0.834842 0.834841 0.834895 0.834887
0.834812 0.834825 0.834892 0.834899 0.834851 0.834853 0.834903 0.834904 0.834855 0.834853
0.834904 0.834904 0.834854 0.834854 0.834904 0.834904 0.834854 0.834854 0.834904 0.834904
0.834853 0.834855 0.834904 0.834903 0.834853 0.834851 0.834899 0.834892 0.834825 0.834835
0.834896 0.834903 0.834859 0.834861 0.834907 0.834907 0.834862 0.834861 0.834907 0.834907
0.834862 0.834862 0.834907 0.834907 0.834862 0.834862 0.834907 0.834907 0.834861 0.834862
0.834907 0.834907 0.834861 0.834859 0.834903 0.834896 0.834835 0.834843 0.834898 0.834905
0.834865 0.834866 0.834909 0.834909 0.834868 0.834867 0.834909 0.834909 0.834868 0.834867
0.834909 0.834909 0.834867 0.834868 0.834909 0.834909 0.834867 0.834868 0.834909 0.834909
0.834866 0.834865 0.834905 0.834898 0.834843 0.834847 0.8349 0.834906 0.834868 0.83487
0.83491 0.83491 0.834871 0.83487 0.83491 0.83491 0.834871 0.834871 0.83491 0.83491
0.834871 0.834871 0.83491 0.83491 0.83487 0.834871 0.83491 0.83491 0.83487 0.834868
0.834906 0.8349 0.834848 0.83485 0.8349 0.834906 0.83487 0.834872 0.83491 0.83491
0.834873 0.834872 0.83491 0.83491 0.834873 0.834873 0.83491 0.83491 0.834873 0.834873
0.83491 0.83491 0.834872 0.834873 0.83491 0.83491 0.834872 0.83487 0.834906 0.8349
0.83485 0.834851 0.8349 0.834906 0.834871 0.834873 0.83491 0.83491 0.834874 0.834873
0.83491 0.83491 0.834874 0.834874 0.83491 0.83491 0.834874 0.834874 0.83491 0.83491
0.834873 0.834874 0.83491 0.83491 0.834873 0.834871 0.834906 0.8349 0.834851 
rho 1 840 float
1.02647 1.02595 1.02588 1.02609 1.02614 1.02587 1.02586 1.0261 1.02612 1.02587 1.02586
1.02611 1.02612 1.02587 1.02587 1.02612 1.02611 1.02586 1.02587 1.02612 1.0261
1.02586 1.02587 1.02614 1.02609 1.02588 1.02595 1.02647 1.02639 1.02593 1.02586
1.02605 1.0261 1.02586 1.02585 1.02606 1.02608 1.02585 1.02585 1.02607 1.02608
1.02585 1.02585 1.02608 1.02607 1.02585 1.02585 1.02608 1.02606 1.02585 1.02586
1.0261 1.02605 1.02586 1.02593 1.02639 1.02631 1.02591 1.02585 1.02602 1.02606
1.02585 1.02584 1.02602 1.02604 1.02585 1.02584 1.02603 1.02604 1.02584 1.02584
1.02604 1.02603 1.02584 1.02585 1.02604 1.02602 1.02584 1.02585 1.02606 1.02602
1.02585 1.02591 1.02631 1.02625 1.0259 1.02584 1.02598 1.02602 1.02584 1.02583
1.02599 1.02601 1.02584 1.02583 1.026 1.026 1.02584 1.02584 1.026 1.026
1.02583 1.02584 1.02601 1.02599 1.02583 1.02584 1.02602 1.02598 1.02584 1.0259
1.02625 1.02618 1.02589 1.02584 1.02595 1.02598 1.02584 1.02583 1.02596 1.02597
1.02584 1.02583 1.02596 1.02597 1.02583 1.02583 1.02597 1.02596 1.02583 1.02584
1.02597 1.02596 1.02583 1.02584 1.02598 1.02595 1.02584 1.02589 1.02618 1.02613
1.02588 1.02584 1.02593 1.02595 1.02584 1.02583 1.02593 1.02594 1.02584 1.02583
1.02594 1.02594 1.02583 1.02583 1.02594 1.02594 1.02583 1.02584 1.02594 1.02593
1.02583 1.02584 1.02595 1.02593 1.02584 1.02588 1.02613 1.02608 1.02588 1.02584
1.0259 1.02593 1.02584 1.02583 1.02591 1.02592 1.02584 1.02584 1.02591 1.02592
1.02584 1.02584 1.02592 1.02591 1.02584 1.02584 1.02592 1.02591 1.02583 1.02584
1.02593 1.0259 1.02584 1.02588 1.02608 1.02603 1.02588 1.02585 1.02588 1.0259
1.02584 1.02584 1.02588 1.0259 1.02584 1.02584 1.02589 1.02589 1.02584 1.02584
1.02589 1.02589 1.02584 1.02584 1.0259 1.02588 1.02584 1.02584 1.0259 1.02588
1.02585 1.02587 1.02603 1.02599 1.02588 1.02585 1.02586 1.02588 1.02585 1.02585
1.02586 1.02587 1.02585 1.02585 1.02587 1.02587 1.02585 1.02585 1.02587 1.02587
1.02585 1.02585 1.02587 1.02586 1.02585 1.02585 1.02588 1.02586 1.02585 1.02588
1.02599 1.02596 1.02588 1.02586 1.02585 1.02586 1.02585 1.02585 1.02585 1.02586
1.02585 1.02585 1.02585 1.02585 1.02585 1.02585 1.02585 1.02585 1.02585 1.02585
1.02586 1.02585 1.02585 1.02585 1.02586 1.02585 1.02586 1.02588 1.02596 1.02593
1.02588 1.02586 1.02583 1.02584 1.02586 1.02586 1.02583 1.02584 1.02586 1.02586
1.02584 1.02584 1.02586 1.02586 1.02584 1.02584 1.02586 1.02586 1.02584 1.02583
1.02586 1.02586 1.02584 1.02583 1.02586 1.02588 1.02593 1.0259 1.02588 1.02587
1.02582 1.02583 1.02586 1.02586 1.02582 1.02583 1.02586 1.02586 1.02582 1.02582
1.02586 1.02586 1.02582 1.02582 1.02586 1.02586 1.02583 1.02582 1.02586 1.02586
1.02583 1.02582 1.02587 1.02588 1.0259 1.02587 1.02588 1.02587 1.02581 1.02581
1.02587 1.02587 1.02581 1.02581 1.02587 1.02587 1.02581 1.02581 1.02587 1.02587
1.02581 1.02581 1.02587 1.02587 1.02581 1.02581 1.02587 1.02587 1.02581 1.02581
1.02587 1.02588 1.02587 1.02585 1.02588 1.02587 1.02579 1.0258 1.02587 1.02587
1.02579 1.0258 1.02587 1.02587 1.0258 1.0258 1.02587 1.02587 1.0258 1.0258
1.02587 1.02587 1.0258 1.02579 1.02587 1.02587 1.0258 1.02579 1.02587 1.02588
1.02585 1.02583 1.02588 1.02587 1.02578 1.02579 1.02587 1.02587 1.02578 1.02579
1.02587 1.02587 1.02578 1.02579 1.02587 1.02587 1.02579 1.02578 1.02587 1.02587
1.02579 1.02578 1.02587 1.02587 1.02579 1.02578 1.02587 1.02588 1.02583 1.02581
1.02588 1.02587 1.02577 1.02578 1.02587 1.02587 1.02577 1.02577 1.02587 1.02587
1.02577 1.02577 1.02587 1.02587 1.02577 1.02577 1.02587 1.02587 1.02577 1.02577
1.02587 1.02587 1.02578 1.02577 1.02587 1.02588 1.02581 1.0258 1.02587 1.02586
1.02576 1.02576 1.02586 1.02586 1.02576 1.02576 1.02586 1.02586 1.02576 1.02576
1.02586 1.02586 1.02576 1.02576 1.02586 1.02586 1.02576 1.02576 1.02586 1.02586
1.02576 1.02576 1.02586 1.02587 1.0258 1.02578 1.02586 1.02585 1.02575 1.02575
1.02585 1.02585 1.02575 1.02575 1.02586 1.02586 1.02575 1.02575 1.02586 1.02586
1.02575 1.02575 1.02586 1.02586 1.02575 1.02575 1.02585 1.02585 1.02575 1.02575
1.02585 1.02586 1.02578 1.02576 1.02585 1.02585 1.02574 1.02574 1.02584 1.02584
1.02574 1.02574 1.02585 1.02585 1.02574 1.02574 1.02585 1.02585 1.02574 1.02574
1.02585 1.02585 1.02574 1.02574 1.02584 1.02584 1.02574 1.02574 1.02585 1.02585
1.02576 1.02575 1.02584 1.02583 1.02573 1.02573 1.02583 1.02583 1.02573 1.02573
1.02583 1.02583 1.02573 1.02573 1.02583 1.02583 1.02573 1.02573 1.02583 1.02583
1.02573 1.02573 1.02583 1.02583 1.02573 1.02573 1.02583 1.02584 1.02575 1.02574
1.02582 1.02582 1.02572 1.02572 1.02582 1.02582 1.02572 1.02572 1.02582 1.02582
1.02572 1.02572 1.02582 1.02582 1.02572 1.02572 1.02582 1.02582 1.02572 1.02572
1.02582 1.02582 1.02572 1.02572 1.02582 1.02582 1.02574 1.02572 1.0258 1.0258
1.0257 1.02571 1.0258 1.0258 1.0257 1.02571 1.0258 1.0258 1.02571 1.02571
1.0258 1.0258 1.02571 1.02571 1.0258 1.0258 1.02571 1.0257 1.0258 1.0258
1.02571 1.0257 1.0258 1.0258 1.02572 1.02571 1.02578 1.02578 1.02569 1.02569
1.02578 1.02578 1.02569 1.02569 1.02578 1.02578 1.02569 1.02569 1.02578 1.02578
1.02569 1.02569 1.02578 1.02578 1.02569 1.02569 1.02578 1.02578 1.02569 1.02569
1.02578 1.02578 1.02571 1.02569 1.02576 1.02576 1.02568 1.02568 1.02576 1.02576
1.02568 1.02568 1.02576 1.02576 1.02568 1.02568 1.02576 1.02576 1.02568 1.02568
1.02576 1.02576 1.02568 1.02568 1.02576 1.02576 1.02568 1.02568 1.02576 1.02576
1.02569 1.02568 1.02574 1.02574 1.02567 1.02567 1.02573 1.02573 1.02567 1.02567
1.02574 1.02574 1.02567 1.02567 1.02574 1.02574 1.02567 1.02567 1.02574 1.02574
1.02567 1.02567 1.02573 1.02573 1.02567 1.02567 1.02574 1.02574 1.02568 1.02567
1.02571 1.02571 1.02566 1.02566 1.02571 1.02571 1.02566 1.02566 1.02571 1.02571
1.02566 1.02566 1.02571 1.02571 1.02566 1.02566 1.02571 1.02571 1.02566 1.02566
1.02571 1.02571 1.02566 1.02566 1.02571 1.02571 1.02567 1.02565 1.02569 1.02568
1.02565 1.02564 1.02568 1.02568 1.02564 1.02565 1.02568 1.02568 1.02565 1.02565
1.02568 1.02568 1.02565 1.02565 1.02568 1.02568 1.02565 1.02564 1.02568 1.02568
1.02564 1.02565 1.02568 1.02569 1.02565 1.02564 1.02566 1.02566 1.02563 1.02563
1.02566 1.02566 1.02563 1.02563 1.02566 1.02566 1.02563 1.02563 1.02566 1.02566
1.02563 1.02563 1.02566 1.02566 1.02563 1.02563 1.02566 1.02566 1.02563 1.02563
1.02566 1.02566 1.02564 1.02563 1.02563 1.02563 1.02562 1.02562 1.02563 1.02563
1.02562 1.02562 1.02563 1.02563 1.02562 1.02562 1.02563 1.02563 1.02562 1.02562
1.02563 1.02563 1.02562 1.02562 1.02563 1.02563 1.02562 1.02562 1.02563 1.02563
1.02563 1.02562 1.0256 1.0256 1.02561 1.02561 1.0256 1.0256 1.02561 1.02561
1.0256 1.0256 1.02561 1.02561 1.0256 1.0256 1.02561 1.02561 1.0256 1.0256
1.02561 1.02561 1.0256 1.0256 1.02561 1.02561 1.0256 1.0256 1.02562 
YCH3OHfuel 1 840 float
0.896569 0.898318 0.898567 0.897864 0.897692 0.89857 0.898611 0.897829 0.89775 0.898584 0.898603
0.897802 0.897773 0.898591 0.898591 0.897773 0.897802 0.898603 0.898584 0.897751 0.897829
0.898611 0.89857 0.897692 0.897864 0.898568 0.898319 0.896572 0.896868 0.898441 0.898673
0.898026 0.897871 0.898676 0.898715 0.897997 0.897924 0.898689 0.898707 0.897973 0.897945
0.898696 0.898696 0.897945 0.897973 0.898707 0.898689 0.897924 0.897997 0.898715 0.898677
0.897871 0.898026 0.898673 0.898442 0.89687 0.897154 0.898564 0.898777 0.898182 0.898044
0.898781 0.898817 0.898159 0.898091 0.898793 0.898809 0.898136 0.898111 0.898799 0.898799
0.898111 0.898136 0.898809 0.898793 0.898091 0.898159 0.898817 0.898781 0.898044 0.898183
0.898777 0.898565 0.897156 0.897424 0.898685 0.898878 0.898332 0.898209 0.898883 0.898916
0.898314 0.898251 0.898894 0.898909 0.898293 0.898269 0.8989 0.8989 0.898269 0.898293
0.898909 0.898894 0.898251 0.898314 0.898916 0.898883 0.898209 0.898332 0.898879 0.898686
0.897426 0.897677 0.898801 0.898975 0.898473 0.898366 0.898981 0.899011 0.89846 0.898403
0.89899 0.899005 0.898441 0.898419 0.898996 0.898996 0.89842 0.898441 0.899005 0.89899
0.898403 0.89846 0.899011 0.898981 0.898366 0.898474 0.898976 0.898802 0.897679 0.897912
0.898912 0.899068 0.898607 0.898514 0.899074 0.899101 0.898597 0.898545 0.899082 0.899095
0.898581 0.898561 0.899088 0.899088 0.898561 0.89858 0.899095 0.899082 0.898546 0.898597
0.899101 0.899074 0.898514 0.898607 0.899068 0.898913 0.897913 0.898128 0.899017 0.899155
0.898731 0.898652 0.899162 0.899186 0.898726 0.898679 0.899169 0.899181 0.898711 0.898693
0.899174 0.899174 0.898693 0.898711 0.899181 0.899169 0.898679 0.898726 0.899186 0.899162
0.898652 0.898732 0.899156 0.899018 0.898129 0.898325 0.899115 0.899237 0.898847 0.89878
0.899244 0.899265 0.898845 0.898803 0.89925 0.899261 0.898832 0.898816 0.899255 0.899255
0.898816 0.898832 0.899261 0.89925 0.898803 0.898845 0.899265 0.899244 0.89878 0.898848
0.899237 0.899116 0.898326 0.898505 0.899207 0.899313 0.898955 0.898898 0.899321 0.899339
0.898955 0.898918 0.899326 0.899335 0.898943 0.89893 0.89933 0.89933 0.89893 0.898943
0.899335 0.899326 0.898918 0.898955 0.899339 0.899321 0.898898 0.898955 0.899313 0.899207
0.898506 0.898667 0.89929 0.899383 0.899054 0.899007 0.899391 0.899406 0.899056 0.899024