# vtk DataFile Version 2.0
fuelOutlet
ASCII
DATASET POLYDATA
POINTS 1085 float
0.0039544 0.001 0.022 0.0040044 0.001 0.022 0.0040044 0.0015 0.022 0.0039544 0.0015
0.022 0.0040044 0.002 0.022 0.0039544 0.002 0.022 0.0040044 0.0025 0.022
0.0039544 0.0025 0.022 0.0040044 0.003 0.022 0.0039544 0.003 0.022 0.0039544
0.004 0.022 0.0040044 0.004 0.022 0.0040044 0.0045 0.022 0.0039544 0.0045
0.022 0.0040044 0.005 0.022 0.0039544 0.005 0.022 0.0040044 0.0055 0.022
0.0039544 0.0055 0.022 0.0040044 0.006 0.022 0.0039544 0.006 0.022 0.0039544
0.007 0.022 0.0040044 0.007 0.022 0.0040044 0.0075 0.022 0.0039544 0.0075
0.022 0.0040044 0.008 0.022 0.0039544 0.008 0.022 0.0040044 0.0085 0.022
0.0039544 0.0085 0.022 0.0040044 0.009 0.022 0.0039544 0.009 0.022 0.0039544
0.01 0.022 0.0040044 0.01 0.022 0.0040044 0.0105 0.022 0.0039544 0.0105
0.022 0.0040044 0.011 0.022 0.0039544 0.011 0.022 0.0040044 0.0115 0.022
0.0039544 0.0115 0.022 0.0040044 0.012 0.022 0.0039544 0.012 0.022 0.0039544
0.013 0.022 0.0040044 0.013 0.022 0.0040044 0.0135 0.022 0.0039544 0.0135
0.022 0.0040044 0.014 0.022 0.0039544 0.014 0.022 0.0040044 0.0145 0.022
0.0039544 0.0145 0.022 0.0040044 0.015 0.022 0.0039544 0.015 0.022 0.0039544
0.016 0.022 0.0040044 0.016 0.022 0.0040044 0.0165 0.022 0.0039544 0.0165
0.022 0.0040044 0.017 0.022 0.0039544 0.017 0.022 0.0040044 0.0175 0.022
0.0039544 0.0175 0.022 0.0040044 0.018 0.022 0.0039544 0.018 0.022 0.0039544
0.019 0.022 0.0040044 0.019 0.022 0.0040044 0.0195 0.022 0.0039544 0.0195
0.022 0.0040044 0.02 0.022 0.0039544 0.02 0.022 0.0040044 0.0205 0.022
0.0039544 0.0205 0.022 0.0040044 0.021 0.022 0.0039544 0.021 0.022 0.0040544
0.001 0.022 0.0040544 0.0015 0.022 0.0040544 0.002 0.022 0.0040544 0.0025
0.022 0.0040544 0.003 0.022 0.0040544 0.004 0.022 0.0040544 0.0045 0.022
0.0040544 0.005 0.022 0.0040544 0.0055 0.022 0.0040544 0.006 0.022 0.0040544
0.007 0.022 0.0040544 0.0075 0.022 0.0040544 0.008 0.022 0.0040544 0.0085
0.022 0.0040544 0.009 0.022 0.0040544 0.01 0.022 0.0040544 0.0105 0.022
0.0040544 0.011 0.022 0.0040544 0.0115 0.022 0.0040544 0.012 0.022 0.0040544
0.013 0.022 0.0040544 0.0135 0.022 0.0040544 0.014 0.022 0.0040544 0.0145
0.022 0.0040544 0.015 0.022 0.0040544 0.016 0.022 0.0040544 0.0165 0.022
0.0040544 0.017 0.022 0.0040544 0.0175 0.022 0.0040544 0.018 0.022 0.0040544
0.019 0.022 0.0040544 0.0195 0.022 0.0040544 0.02 0.022 0.0040544 0.0205
0.022 0.0040544 0.021 0.022 0.0041044 0.001 0.022 0.0041044 0.0015 0.022
0.0041044 0.002 0.022 0.0041044 0.0025 0.022 0.0041044 0.003 0.022 0.0041044
0.004 0.022 0.0041044 0.0045 0.022 0.0041044 0.005 0.022 0.0041044 0.0055
0.022 0.0041044 0.006 0.022 0.0041044 0.007 0.022 0.0041044 0.0075 0.022
0.0041044 0.008 0.022 0.0041044 0.0085 0.022 0.0041044 0.009 0.022 0.0041044
0.01 0.022 0.0041044 0.0105 0.022 0.0041044 0.011 0.022 0.0041044 0.0115
0.022 0.0041044 0.012 0.022 0.0041044 0.013 0.022 0.0041044 0.0135 0.022
0.0041044 0.014 0.022 0.0041044 0.0145 0.022 0.0041044 0.015 0.022 0.0041044
0.016 0.022 0.0041044 0.0165 0.022 0.0041044 0.017 0.022 0.0041044 0.0175
0.022 0.0041044 0.018 0.022 0.0041044 0.019 0.022 0.0041044 0.0195 0.022
0.0041044 0.02 0.022 0.0041044 0.0205 0.022 0.0041044 0.021 0.022 0.0041544
0.001 0.022 0.0041544 0.0015 0.022 0.0041544 0.002 0.022 0.0041544 0.0025
0.022 0.0041544 0.003 0.022 0.0041544 0.004 0.022 0.0041544 0.0045 0.022
0.0041544 0.005 0.022 0.0041544 0.0055 0.022 0.0041544 0.006 0.022 0.0041544
0.007 0.022 0.0041544 0.0075 0.022 0.0041544 0.008 0.022 0.0041544 0.0085
0.022 0.0041544 0.009 0.022 0.0041544 0.01 0.022 0.0041544 0.0105 0.022
0.0041544 0.011 0.022 0.0041544 0.0115 0.022 0.0041544 0.012 0.022 0.0041544
0.013 0.022 0.0041544 0.0135 0.022 0.0041544 0.014 0.022 0.0041544 0.0145
0.022 0.0041544 0.015 0.022 0.0041544 0.016 0.022 0.0041544 0.0165 0.022
0.0041544 0.017 0.022 0.0041544 0.0175 0.022 0.0041544 0.018 0.022 0.0041544
0.019 0.022 0.0041544 0.0195 0.022 0.0041544 0.02 0.022 0.0041544 0.0205
0.022 0.0041544 0.021 0.022 0.0042044 0.001 0.022 0.0042044 0.0015 0.022
0.0042044 0.002 0.022 0.0042044 0.0025 0.022 0.0042044 0.003 0.022 0.0042044
0.004 0.022 0.0042044 0.0045 0.022 0.0042044 0.005 0.022 0.0042044 0.0055
0.022 0.0042044 0.006 0.022 0.0042044 0.007 0.022 0.0042044 0.0075 0.022
0.0042044 0.008 0.022 0.0042044 0.0085 0.022 0.0042044 0.009 0.022 0.0042044
0.01 0.022 0.0042044 0.0105 0.022 0.0042044 0.011 0.022 0.0042044 0.0115
0.022 0.0042044 0.012 0.022 0.0042044 0.013 0.022 0.0042044 0.0135 0.022
0.0042044 0.014 0.022 0.0042044 0.0145 0.022 0.0042044 0.015 0.022 0.0042044
0.016 0.022 0.0042044 0.0165 0.022 0.0042044 0.017 0.022 0.0042044 0.0175
0.022 0.0042044 0.018 0.022 0.0042044 0.019 0.022 0.0042044 0.0195 0.022
0.0042044 0.02 0.022 0.0042044 0.0205 0.022 0.0042044 0.021 0.022 0.0042544
0.001 0.022 0.0042544 0.0015 0.022 0.0042544 0.002 0.022 0.0042544 0.0025
0.022 0.0042544 0.003 0.022 0.0042544 0.004 0.022 0.0042544 0.0045 0.022
0.0042544 0.005 0.022 0.0042544 0.0055 0.022 0.0042544 0.006 0.022 0.0042544
0.007 0.022 0.0042544 0.0075 0.022 0.0042544 0.008 0.022 0.0042544 0.0085
0.022 0.0042544 0.009 0.022 0.0042544 0.01 0.022 0.0042544 0.0105 0.022
0.0042544 0.011 0.022 0.0042544 0.0115 0.022 0.0042544 0.012 0.022 0.0042544
0.013 0.022 0.0042544 0.0135 0.022 0.0042544 0.014 0.022 0.0042544 0.0145
0.022 0.0042544 0.015 0.022 0.0042544 0.016 0.022 0.0042544 0.0165 0.022
0.0042544 0.017 0.022 0.0042544 0.0175 0.022 0.0042544 0.018 0.022 0.0042544
0.019 0.022 0.0042544 0.0195 0.022 0.0042544 0.02 0.022 0.0042544 0.0205
0.022 0.0042544 0.021 0.022 0.0043044 0.001 0.022 0.0043044 0.0015 0.022
0.0043044 0.002 0.022 0.0043044 0.0025 0.022 0.0043044 0.003 0.022 0.0043044
0.004 0.022 0.0043044 0.0045 0.022 0.0043044 0.005 0.022 0.0043044 0.0055
0.022 0.0043044 0.006 0.022 0.0043044 0.007 0.022 0.0043044 0.0075 0.022
0.0043044 0.008 0.022 0.0043044 0.0085 0.022 0.0043044 0.009 0.022 0.0043044
0.01 0.022 0.0043044 0.0105 0.022 0.0043044 0.011 0.022 0.0043044 0.0115
0.022 0.0043044 0.012 0.022 0.0043044 0.013 0.022 0.0043044 0.0135 0.022
0.0043044 0.014 0.022 0.0043044 0.0145 0.022 0.0043044 0.015 0.022 0.0043044
0.016 0.022 0.0043044 0.0165 0.022 0.0043044 0.017 0.022 0.0043044 0.0175
0.022 0.0043044 0.018 0.022 0.0043044 0.019 0.022 0.0043044 0.0195 0.022
0.0043044 0.02 0.022 0.0043044 0.0205 0.022 0.0043044 0.021 0.022 0.0043544
0.001 0.022 0.0043544 0.0015 0.022 0.0043544 0.002 0.022 0.0043544 0.0025
0.022 0.0043544 0.003 0.022 0.0043544 0.004 0.022 0.0043544 0.0045 0.022
0.0043544 0.005 0.022 0.0043544 0.0055 0.022 0.0043544 0.006 0.022 0.0043544
0.007 0.022 0.0043544 0.0075 0.022 0.0043544 0.008 0.022 0.0043544 0.0085
0.022 0.0043544 0.009 0.022 0.0043544 0.01 0.022 0.0043544 0.0105 0.022
0.0043544 0.011 0.022 0.0043544 0.0115 0.022 0.0043544 0.012 0.022 0.0043544
0.013 0.022 0.0043544 0.0135 0.022 0.0043544 0.014 0.022 0.0043544 0.0145
0.022 0.0043544 0.015 0.022 0.0043544 0.016 0.022 0.0043544 0.0165 0.022
0.0043544 0.017 0.022 0.0043544 0.0175 0.022 0.0043544 0.018 0.022 0.0043544
0.019 0.022 0.0043544 0.0195 0.022 0.0043544 0.02 0.022 0.0043544 0.0205
0.022 0.0043544 0.021 0.022 0.0044044 0.001 0.022 0.0044044 0.0015 0.022
0.0044044 0.002 0.022 0.0044044 0.0025 0.022 0.0044044 0.003 0.022 0.0044044
0.004 0.022 0.0044044 0.0045 0.022 0.0044044 0.005 0.022 0.0044044 0.0055
0.022 0.0044044 0.006 0.022 0.0044044 0.007 0.022 0.0044044 0.0075 0.022
0.0044044 0.008 0.022 0.0044044 0.0085 0.022 0.0044044 0.009 0.022 0.0044044
0.01 0.022 0.0044044 0.0105 0.022 0.0044044 0.011 0.022 0.0044044 0.0115
0.022 0.0044044 0.012 0.022 0.0044044 0.013 0.022 0.0044044 0.0135 0.022
0.0044044 0.014 0.022 0.0044044 0.0145 0.022 0.0044044 0.015 0.022 0.0044044
0.016 0.022 0.0044044 0.0165 0.022 0.0044044 0.017 0.022 0.0044044 0.0175
0.022 0.0044044 0.018 0.022 0.0044044 0.019 0.022 0.0044044 0.0195 0.022
0.0044044 0.02 0.022 0.0044044 0.0205 0.022 0.0044044 0.021 0.022 0.0044544
0.001 0.022 0.0044544 0.0015 0.022 0.0044544 0.002 0.022 0.0044544 0.0025
0.022 0.0044544 0.003 0.022 0.0044544 0.004 0.022 0.0044544 0.0045 0.022
0.0044544 0.005 0.022 0.0044544 0.0055 0.022 0.0044544 0.006 0.022 0.0044544
0.007 0.022 0.0044544 0.0075 0.022 0.0044544 0.008 0.022 0.0044544 0.0085
0.022 0.0044544 0.009 0.022 0.0044544 0.01 0.022 0.0044544 0.0105 0.022
0.0044544 0.011 0.022 0.0044544 0.0115 0.022 0.0044544 0.012 0.022 0.0044544
0.013 0.022 0.0044544 0.0135 0.022 0.0044544 0.014 0.022 0.0044544 0.0145
0.022 0.0044544 0.015 0.022 0.0044544 0.016 0.022 0.0044544 0.0165 0.022
0.0044544 0.017 0.022 0.0044544 0.0175 0.022 0.0044544 0.018 0.022 0.0044544
0.019 0.022 0.0044544 0.0195 0.022 0.0044544 0.02 0.022 0.0044544 0.0205
0.022 0.0044544 0.021 0.022 0.0045044 0.001 0.022 0.0045044 0.0015 0.022
0.0045044 0.002 0.022 0.0045044 0.0025 0.022 0.0045044 0.003 0.022 0.0045044
0.004 0.022 0.0045044 0.0045 0.022 0.0045044 0.005 0.022 0.0045044 0.0055
0.022 0.0045044 0.006 0.022 0.0045044 0.007 0.022 0.0045044 0.0075 0.022
0.0045044 0.008 0.022 0.0045044 0.0085 0.022 0.0045044 0.009 0.022 0.0045044
0.01 0.022 0.0045044 0.0105 0.022 0.0045044 0.011 0.022 0.0045044 0.0115
0.022 0.0045044 0.012 0.022 0.0045044 0.013 0.022 0.0045044 0.0135 0.022
0.0045044 0.014 0.022 0.0045044 0.0145 0.022 0.0045044 0.015 0.022 0.0045044
0.016 0.022 0.0045044 0.0165 0.022 0.0045044 0.017 0.022 0.0045044 0.0175
0.022 0.0045044 0.018 0.022 0.0045044 0.019 0.022 0.0045044 0.0195 0.022
0.0045044 0.02 0.022 0.0045044 0.0205 0.022 0.0045044 0.021 0.022 0.0045544
0.001 0.022 0.0045544 0.0015 0.022 0.0045544 0.002 0.022 0.0045544 0.0025
0.022 0.0045544 0.003 0.022 0.0045544 0.004 0.022 0.0045544 0.0045 0.022
0.0045544 0.005 0.022 0.0045544 0.0055 0.022 0.0045544 0.006 0.022 0.0045544
0.007 0.022 0.0045544 0.0075 0.022 0.0045544 0.008 0.022 0.0045544 0.0085
0.022 0.0045544 0.009 0.022 0.0045544 0.01 0.022 0.0045544 0.0105 0.022
0.0045544 0.011 0.022 0.0045544 0.0115 0.022 0.0045544 0.012 0.022 0.0045544
0.013 0.022 0.0045544 0.0135 0.022 0.0045544 0.014 0.022 0.0045544 0.0145
[...]
CELL_DATA 840
FIELD attributes 16
patchID 1 840 float
3 3 3 3 3 3 3 3 3 3 3
3 3 3 3 3 3 3 3 3 3
3 3 3 3 3 3 3 3 3 3
3 3 3 3 3 3 3 3 3 3
3 3 3 3 3 3 3 3 3 3
3 3 3 3 3 3 3 3 3 3
3 3 3 3 3 3 3 3 3 3
3 3 3 3 3 3 3 3 3 3
3 3 3 3 3 3 3 3 3 3
3 3 3 3 3 3 3 3 3 3
3 3 3 3 3 3 3 3 3 3
3 3 3 3 3 3 3 3 3 3
3 3 3 3 3 3 3 3 3 3
3 3 3 3 3 3 3 3 3 3
3 3 3 3 3 3 3 3 3 3
3 3 3 3 3 3 3 3 3 3
3 3 3 3 3 3 3 3 3 3
3 3 3 3 3 3 3 3 3 3
3 3 3 3 3 3 3 3 3 3
3 3 3 3 3 3 3 3 3 3
3 3 3 3 3 3 3 3 3 3
3 3 3 3 3 3 3 3 3 3
3 3 3 3 3 3 3 3 3 3
3 3 3 3 3 3 3 3 3 3
3 3 3 3 3 3 3 3 3 3
3 3 3 3 3 3 3 3 3 3
3 3 3 3 3 3 3 3 3 3
3 3 3 3 3 3 3 3 3 3
3 3 3 3 3 3 3 3 3 3
3 3 3 3 3 3 3 3 3 3
3 3 3 3 3 3 3 3 3 3
3 3 3 3 3 3 3 3 3 3
3 3 3 3 3 3 3 3 3 3
3 3 3 3 3 3 3 3 3 3
3 3 3 3 3 3 3 3 3 3
3 3 3 3 3 3 3 3 3 3
3 3 3 3 3 3 3 3 3 3
3 3 3 3 3 3 3 3 3 3
3 3 3 3 3 3 3 3 3 3
3 3 3 3 3 3 3 3 3 3
3 3 3 3 3 3 3 3 3 3
3 3 3 3 3 3 3 3 3 3
3 3 3 3 3 3 3 3 3 3
3 3 3 3 3 3 3 3 3 3
3 3 3 3 3 3 3 3 3 3
3 3 3 3 3 3 3 3 3 3
3 3 3 3 3 3 3 3 3 3
3 3 3 3 3 3 3 3 3 3
3 3 3 3 3 3 3 3 3 3
3 3 3 3 3 3 3 3 3 3
3 3 3 3 3 3 3 3 3 3
3 3 3 3 3 3 3 3 3 3
3 3 3 3 3 3 3 3 3 3
3 3 3 3 3 3 3 3 3 3
3 3 3 3 3 3 3 3 3 3
3 3 3 3 3 3 3 3 3 3
3 3 3 3 3 3 3 3 3 3
3 3 3 3 3 3 3 3 3 3
3 3 3 3 3 3 3 3 3 3
3 3 3 3 3 3 3 3 3 3
3 3 3 3 3 3 3 3 3 3
3 3 3 3 3 3 3 3 3 3
3 3 3 3 3 3 3 3 3 3
3 3 3 3 3 3 3 3 3 3
3 3 3 3 3 3 3 3 3 3
3 3 3 3 3 3 3 3 3 3
3 3 3 3 3 3 3 3 3 3
3 3 3 3 3 3 3 3 3 3
3 3 3 3 3 3 3 3 3 3
3 3 3 3 3 3 3 3 3 3
3 3 3 3 3 3 3 3 3 3
3 3 3 3 3 3 3 3 3 3
3 3 3 3 3 3 3 3 3 3
3 3 3 3 3 3 3 3 3 3
3 3 3 3 3 3 3 3 3 3
3 3 3 3 3 3 3 3 3 3
3 3 3 3 3 3 3 3 3 3
3 3 3 3 3 3 3 3 3 3
3 3 3 3 3 3 3 3 3 3
3 3 3 3 3 3 3 3 3 3
3 3 3 3 3 3 3 3 3 3
3 3 3 3 3 3 3 3 3 3
3 3 3 3 3 3 3 3 3 3
3 3 3 3 3 3 3 3 3 
diffH2Ofuel 1 840 float
0 0 0 0 0 0 0 0 0 0 0
0 0 0 0 0 0 0 0 0 0
0 0 0 0 0 0 0 0 0 0
0 0 0 0 0 0 0 0 0 0
0 0 0 0 0 0 0 0 0 0
0 0 0 0 0 0 0 0 0 0
0 0 0 0 0 0 0 0 0 0
0 0 0 0 0 0 0 0 0 0
0 0 0 0 0 0 0 0 0 0
0 0 0 0 0 0 0 0 0 0
0 0 0 0 0 0 0 0 0 0
0 0 0 0 0 0 0 0 0 0
0 0 0 0 0 0 0 0 0 0
0 0 0 0 0 0 0 0 0 0
0 0 0 0 0 0 0 0 0 0
0 0 0 0 0 0 0 0 0 0
0 0 0 0 0 0 0 0 0 0
0 0 0 0 0 0 0 0 0 0
0 0 0 0 0 0 0 0 0 0
0 0 0 0 0 0 0 0 0 0
0 0 0 0 0 0 0 0 0 0
0 0 0 0 0 0 0 0 0 0
0 0 0 0 0 0 0 0 0 0
0 0 0 0 0 0 0 0 0 0
0 0 0 0 0 0 0 0 0 0
0 0 0 0 0 0 0 0 0 0
0 0 0 0 0 0 0 0 0 0
0 0 0 0 0 0 0 0 0 0
0 0 0 0 0 0 0 0 0 0
0 0 0 0 0 0 0 0 0 0
0 0 0 0 0 0 0 0 0 0
0 0 0 0 0 0 0 0 0 0
0 0 0 0 0 0 0 0 0 0
0 0 0 0 0 0 0 0 0 0
0 0 0 0 0 0 0 0 0 0
0 0 0 0 0 0 0 0 0 0
0 0 0 0 0 0 0 0 0 0
0 0 0 0 0 0 0 0 0 0
0 0 0 0 0 0 0 0 0 0
0 0 0 0 0 0 0 0 0 0
0 0 0 0 0 0 0 0 0 0
0 0 0 0 0 0 0 0 0 0
0 0 0 0 0 0 0 0 0 0
0 0 0 0 0 0 0 0 0 0
0 0 0 0 0 0 0 0 0 0
0 0 0 0 0 0 0 0 0 0
0 0 0 0 0 0 0 0 0 0
0 0 0 0 0 0 0 0 0 0
0 0 0 0 0 0 0 0 0 0
0 0 0 0 0 0 0 0 0 0
0 0 0 0 0 0 0 0 0 0
0 0 0 0 0 0 0 0 0 0
0 0 0 0 0 0 0 0 0 0
0 0 0 0 0 0 0 0 0 0
0 0 0 0 0 0 0 0 0 0
0 0 0 0 0 0 0 0 0 0
0 0 0 0 0 0 0 0 0 0
0 0 0 0 0 0 0 0 0 0
0 0 0 0 0 0 0 0 0 0
0 0 0 0 0 0 0 0 0 0
0 0 0 0 0 0 0 0 0 0
0 0 0 0 0 0 0 0 0 0
0 0 0 0 0 0 0 0 0 0
0 0 0 0 0 0 0 0 0 0
0 0 0 0 0 0 0 0 0 0
0 0 0 0 0 0 0 0 0 0
0 0 0 0 0 0 0 0 0 0
0 0 0 0 0 0 0 0 0 0
0 0 0 0 0 0 0 0 0 0
0 0 0 0 0 0 0 0 0 0
0 0 0 0 0 0 0 0 0 0
0 0 0 0 0 0 0 0 0 0
0 0 0 0 0 0 0 0 0 0
0 0 0 0 0 0 0 0 0 0
0 0 0 0 0 0 0 0 0 0
0 0 0 0 0 0 0 0 0 0
0 0 0 0 0 0 0 0 0 0
0 0 0 0 0 0 0 0 0 0
0 0 0 0 0 0 0 0 0 0
0 0 0 0 0 0 0 0 0 0
0 0 0 0 0 0 0 0 0 0
0 0 0 0 0 0 0 0 0 0
0 0 0 0 0 0 0 0 0 0
0 0 0 0 0 0 0 0 0 
XCH3OHfuel 1 840 float
0.833867 0.834097 0.834088 0.833976 0.834043 0.834171 0.834064 0.833925 0.834098 0.834215 0.83419
0.834056 0.833982 0.834081 0.834076 0.833976 0.834062 0.834192 0.834214 0.834095 0.833931
0.834068 0.834169 0.834042 0.833973 0.834088 0.834098 0.833868 0.833988 0.834221 0.834215
0.834087 0.834158 0.834294 0.834193 0.834035 0.834208 0.834333 0.83431 0.834167 0.834098
0.83421 0.834206 0.834092 0.834173 0.834312 0.834332 0.834205 0.834041 0.834197 0.834292
0.834157 0.834084 0.834214 0.834222 0.833989 0.834113 0.834337 0.834334 0.8342 0.834271
0.834408 0.834316 0.83415 0.834315 0.83444 0.83442 0.834278 0.834216 0.834332 0.834327
0.83421 0.834284 0.834422 0.834439 0.834312 0.834156 0.834319 0.834406 0.83427 0.834197
0.834334 0.834338 0.834113 0.834236 0.834444 0.834442 0.83431 0.834378 0.83451 0.834428
0.834265 0.834416 0.834536 0.834519 0.834383 0.834329 0.834442 0.834439 0.834324 0.834388
0.834521 0.834535 0.834413 0.83427 0.834431 0.834508 0.834378 0.834308 0.834442 0.834445
0.834236 0.834352 0.834539 0.834539 0.834414 0.834477 0.834599 0.834529 0.834374 0.834508
0.83462 0.834606 0.83448 0.834435 0.834541 0.834538 0.83443 0.834485 0.834608 0.834619
0.834505 0.834379 0.834531 0.834598 0.834477 0.834412 0.834539 0.83454 0.834352 0.834458
0.834623 0.834623 0.834509 0.834566 0.834676 0.834616 0.834476 0.83459 0.834692 0.834681
0.834567 0.83453 0.834627 0.834624 0.834526 0.834571 0.834682 0.834691 0.834588 0.834481
0.834619 0.834675 0.834566 0.834507 0.834624 0.834624 0.834459 0.834553 0.834695 0.834696
0.834594 0.834644 0.834741 0.834691 0.834567 0.834662 0.834753 0.834744 0.834643 0.834614
0.834701 0.834698 0.834611 0.834647 0.834745 0.834752 0.83466 0.834571 0.834693 0.83474
0.834644 0.834592 0.834696 0.834696 0.834554 0.834636 0.834756 0.834756 0.834667 0.834711
0.834795 0.834755 0.834646 0.834723 0.834804 0.834796 0.834709 0.834687 0.834762 0.83476
0.834684 0.834712 0.834798 0.834803 0.834722 0.83465 0.834756 0.834794 0.834711 0.834665
0.834756 0.834757 0.834636 0.834706 0.834807 0.834807 0.83473 0.834768 0.83484 0.834807
0.834714 0.834776 0.834845 0.83484 0.834764 0.834748 0.834813 0.834811 0.834746 0.834767
0.834841 0.834845 0.834775 0.834717 0.834808 0.834839 0.834768 0.834729 0.834807 0.834808
0.834706 0.834765 0.834849 0.834848 0.834784 0.834816 0.834876 0.83485 0.834772 0.83482
0.83488 0.834875 0.834811 0.834799 0.834855 0.834853 0.834797 0.834813 0.834876 0.83488
0.834819 0.834774 0.834851 0.834875 0.834815 0.834782 0.834849 0.834849 0.834766 0.834814
0.834883 0.834882 0.834828 0.834855 0.834906 0.834885 0.83482 0.834857 0.834907 0.834904
0.83485 0.834842 0.834889 0.834887 0.83484 0.834852 0.834904 0.834907 0.834856 0.834822
0.834885 0.834905 0.834854 0.834827 0.834883 0.834884 0.834815 0.834855 0.834911 0.83491
0.834865 0.834887 0.834929 0.834913 0.834859 0.834888 0.83493 0.834927 0.834882 0.834877
0.834916 0.834915 0.834876 0.834883 0.834927 0.83493 0.834887 0.834861 0.834913 0.834928
0.834887 0.834864 0.83491 0.834912 0.834855 0.834888 0.834933 0.834932 0.834895 0.834913
0.834948 0.834935 0.834891 0.834912 0.834947 0.834945 0.834908 0.834905 0.834938 0.834936
0.834904 0.834909 0.834945 0.834948 0.834912 0.834893 0.834935 0.834947 0.834913 0.834895
0.834932 0.834934 0.834888 0.834915 0.83495 0.83495 0.83492 0.834934 0.834962 0.834952
0.834917 0.834933 0.834961 0.83496 0.83493 0.834928 0.834954 0.834953 0.834928 0.834931
0.83496 0.834961 0.834932 0.834919 0.834952 0.834961 0.834934 0.834919 0.83495 0.834951
0.834915 0.834936 0.834964 0.834964 0.834939 0.834951 0.834973 0.834966 0.834938 0.834949
0.834972 0.834971 0.834947 0.834946 0.834967 0.834966 0.834946 0.834948 0.834971 0.834972
0.834949 0.834939 0.834966 0.834972 0.834951 0.834939 0.834964 0.834964 0.834936 0.834952
0.834974 0.834974 0.834955 0.834964 0.834981 0.834976 0.834954 0.834962 0.83498 0.834979
0.83496 0.83496 0.834977 0.834976 0.83496 0.834961 0.834979 0.83498 0.834962 0.834955
0.834976 0.834981 0.834964 0.834954 0.834974 0.834975 0.834952 0.834965 0.834982 0.834982
0.834967 0.834974 0.834987 0.834983 0.834967 0.834972 0.834987 0.834986 0.834971 0.834971
0.834984 0.834984 0.834971 0.834971 0.834986 0.834987 0.834972 0.834967 0.834983 0.834987
0.834974 0.834966 0.834982 0.834982 0.834966 0.834975 0.834988 0.834988 0.834976 0.834982
0.834992 0.834989 0.834976 0.83498 0.834991 0.83499 0.834979 0.83498 0.83499 0.834989
0.834979 0.834979 0.83499 0.834991 0.83498 0.834977 0.834989 0.834992 0.834982 0.834976
0.834988 0.834988 0.834975 0.834983 0.834992 0.834992 0.834983 0.834988 0.834995 0.834993
0.834984 0.834986 0.834994 0.834994 0.834985 0.834986 0.834993 0.834993 0.834986 0.834986
0.834994 0.834994 0.834986 0.834984 0.834993 0.834995 0.834987 0.834983 0.834992 0.834992
0.834983 0.834988 0.834995 0.834995 0.834989 0.834992 0.834997 0.834996 0.834989 0.834991
0.834997 0.834996 0.83499 0.834991 0.834996 0.834996 0.834991 0.83499 0.834996 0.834997
0.83499 0.834989 0.834996 0.834997 0.834992 0.834988 0.834995 0.834995 0.834988 0.834993
0.834997 0.834997 0.834993 0.834995 0.834999 0.834998 0.834993 0.834994 0.834998 0.834998
0.834993 0.834994 0.834998 0.834998 0.834994 0.834994 0.834998 0.834998 0.834994 0.834993
0.834998 0.834999 0.834995 0.834992 0.834997 0.834998 0.834993 0.834996 0.834999 0.834999
0.834995 0.834997 0.835 0.834999 0.834996 0.834996 0.835 0.834999 0.834996 0.834997
0.834999 0.834999 0.834997 0.834996 0.834999 0.835 0.834996 0.834996 0.834999 0.835
0.834997 0.834995 0.834999 0.834999 0.834996 0.834998 0.835 0.835 0.834997 0.834999
0.835001 0.835 0.834998 0.834998 0.835 0.835 0.834998 0.834998 0.835 0.835
0.834998 0.834998 0.835 0.835 0.834998 0.834998 0.835 0.835001 0.834999 0.834997
0.835 0.835 0.834998 0.834999 0.835001 0.835001 0.834999 0.835 0.835001 0.835001
0.834999 0.834999 0.835001 0.835001 0.834999 0.835 0.835001 0.835001 0.834999 0.834999
0.835001 0.835001 0.834999 0.834999 0.835001 0.835001 0.835 0.834999 0.835001 0.835001
0.834999 0.835 0.835001 0.835001 0.835 0.835001 0.835001 0.835001 0.835 0.835
0.835001 0.835001 0.835 0.835 0.835001 0.835001 0.835 0.835 0.835001 0.835001
0.835 0.835 0.835001 0.835001 0.835001 0.835 0.835001 0.835001 0.835 0.835001
0.835001 0.835001 0.835001 0.835001 0.835002 0.835002 0.835001 0.835001 0.835002 0.835001
0.835001 0.835001 0.835002 0.835002 0.835001 0.835001 0.835001 0.835002 0.835001 0.835001
0.835002 0.835002 0.835001 0.835001 0.835001 0.835001 0.835001 0.835001 0.835002 0.835002
0.835001 0.835001 0.835002 0.835002 0.835001 0.835001 0.835002 0.835002 0.835001 0.835001
0.835002 0.835002 0.835001 0.835001 0.835002 0.835002 0.835001 0.835001 0.835002 0.835002
0.835001 0.835001 0.835002 0.835002 0.835001 0.835001 0.835002 0.835002 0.835001 0.835002
0.835002 0.835002 0.835002 0.835001 0.835002 0.835002 0.835001 0.835002 0.835002 0.835002
0.835002 0.835001 0.835002 0.835002 0.835001 0.835002 0.835002 0.835002 0.835002 0.835001
0.835002 0.835002 0.835001 0.835002 0.835002 0.835002 0.835002 0.835002 0.835002 0.835002
0.835002 0.835002 0.835002 0.835002 0.835002 0.835002 0.835002 0.835002 0.835002 0.835002
0.835002 0.835002 0.835002 0.835002 0.835002 0.835002 0.835002 0.835002 0.835002 0.835002
0.835002 0.835002 0.835002 0.835002 0.835002 0.835002 0.835002 0.835002 0.835002 0.835002
0.835002 0.835002 0.835002 0.835002 0.835002 0.835002 0.835002 0.835002 0.835002 0.835002
0.835002 0.835002 0.835002 0.835002 0.835002 0.835002 0.835002 0.835002 0.835002 
rho 1 840 float
1.02646 1.02636 1.02636 1.02642 1.02639 1.02633 1.02636 1.02644 1.02639 1.02633 1.02633
1.0264 1.02643 1.02637 1.02637 1.02643 1.0264 1.02633 1.02633 1.02639 1.02644
1.02636 1.02633 1.02639 1.02642 1.02636 1.02636 1.02646 1.02642 1.02632 1.02633
1.02639 1.02636 1.02629 1.02632 1.0264 1.02636 1.0263 1.0263 1.02637 1.02639
1.02633 1.02633 1.02639 1.02636 1.0263 1.0263 1.02636 1.0264 1.02633 1.0263
1.02636 1.02639 1.02633 1.02632 1.02642 1.02638 1.0263 1.0263 1.02636 1.02633
1.02627 1.0263 1.02637 1.02634 1.02629 1.02629 1.02634 1.02636 1.0263 1.0263
1.02636 1.02634 1.02629 1.02629 1.02634 1.02637 1.0263 1.02628 1.02633 1.02636
1.0263 1.0263 1.02638 1.02635 1.02629 1.0263 1.02634 1.02631 1.02627 1.02629
1.02634 1.02632 1.02629 1.02629 1.02632 1.02633 1.02629 1.02629 1.02633 1.02632
1.02628 1.02629 1.02632 1.02634 1.02629 1.02627 1.02631 1.02634 1.0263 1.02629
1.02635 1.02633 1.02628 1.0263 1.02632 1.0263 1.02627 1.02629 1.02633 1.02631
1.02629 1.02629 1.02631 1.02632 1.02629 1.02629 1.02632 1.02631 1.02629 1.02629
1.02631 1.02633 1.02629 1.02627 1.0263 1.02632 1.0263 1.02628 1.02633 1.02632
1.02629 1.02631 1.02632 1.0263 1.02629 1.0263 1.02632 1.02631 1.02631 1.02631
1.02631 1.02631 1.0263 1.0263 1.02631 1.02631 1.02631 1.02631 1.02631 1.02632
1.0263 1.02629 1.0263 1.02632 1.02631 1.02629 1.02632 1.02632 1.02631 1.02633
1.02632 1.02631 1.02631 1.02632 1.02632 1.02632 1.02633 1.02633 1.02632 1.02632
1.02632 1.02632 1.02632 1.02632 1.02633 1.02633 1.02632 1.02632 1.02632 1.02631
1.02631 1.02632 1.02633 1.02631 1.02632 1.02632 1.02633 1.02635 1.02633 1.02632
1.02633 1.02634 1.02633 1.02633 1.02636 1.02636 1.02633 1.02633 1.02634 1.02634
1.02633 1.02633 1.02636 1.02636 1.02633 1.02633 1.02634 1.02634 1.02632 1.02633
1.02635 1.02633 1.02632 1.02633 1.02636 1.02638 1.02634 1.02634 1.02636 1.02637
1.02634 1.02634 1.02638 1.02638 1.02634 1.02634 1.02637 1.02636 1.02634 1.02634
1.02638 1.02638 1.02634 1.02635 1.02637 1.02636 1.02634 1.02634 1.02638 1.02636
1.02633 1.02635 1.02638 1.0264 1.02636 1.02635 1.02639 1.02639 1.02636 1.02636
1.02641 1.02641 1.02636 1.02636 1.02639 1.02639 1.02636 1.02636 1.02641 1.02641
1.02636 1.02636 1.02639 1.02639 1.02636 1.02636 1.0264 1.02638 1.02635 1.02636
1.02641 1.02642 1.02637 1.02637 1.02641 1.02642 1.02637 1.02638 1.02643 1.02643
1.02638 1.02637 1.02641 1.02641 1.02637 1.02638 1.02643 1.02643 1.02638 1.02637
1.02642 1.02641 1.02637 1.02637 1.02642 1.02641 1.02636 1.02638 1.02643 1.02644
1.02639 1.02638 1.02643 1.02644 1.02639 1.02639 1.02645 1.02645 1.02639 1.02639
1.02643 1.02643 1.02639 1.02639 1.02645 1.02645 1.02639 1.02639 1.02644 1.02644
1.02639 1.02639 1.02644 1.02643 1.02638 1.02639 1.02645 1.02646 1.0264 1.0264
1.02645 1.02645 1.0264 1.02641 1.02647 1.02647 1.02641 1.0264 1.02645 1.02645
1.0264 1.02641 1.02647 1.02647 1.02641 1.0264 1.02646 1.02645 1.0264 1.0264
1.02646 1.02645 1.02639 1.0264 1.02646 1.02647 1.02641 1.02641 1.02646 1.02647
1.02641 1.02642 1.02648 1.02648 1.02642 1.02641 1.02646 1.02646 1.02641 1.02642
1.02648 1.02648 1.02642 1.02641 1.02647 1.02647 1.02641 1.02641 1.02647 1.02646
1.0264 1.02641 1.02647 1.02648 1.02642 1.02642 1.02647 1.02648 1.02642 1.02643
1.02649 1.02649 1.02643 1.02642 1.02647 1.02647 1.02642 1.02643 1.02649 1.02649
1.02643 1.02642 1.02648 1.02648 1.02642 1.02642 1.02648 1.02647 1.02641 1.02642
1.02648 1.02649 1.02643 1.02642 1.02648 1.02648 1.02643 1.02643 1.0265 1.0265
1.02644 1.02643 1.02648 1.02648 1.02643 1.02644 1.0265 1.0265 1.02644 1.02643
1.02649 1.02649 1.02643 1.02643 1.02649 1.02648 1.02642 1.02643 1.02649 1.02649
1.02644 1.02643 1.02649 1.02649 1.02643 1.02644 1.0265 1.0265 1.02644 1.02643
1.02649 1.02649 1.02643 1.02644 1.0265 1.0265 1.02644 1.02643 1.02649 1.02649
1.02643 1.02644 1.02649 1.02649 1.02643 1.02643 1.02649 1.0265 1.02644 1.02643
1.02649 1.02649 1.02644 1.02644 1.0265 1.0265 1.02644 1.02644 1.02649 1.02649
1.02643 1.02644 1.0265 1.0265 1.02644 1.02644 1.02649 1.02649 1.02644 1.02644
1.0265 1.02649 1.02643 1.02643 1.02649 1.0265 1.02644 1.02643 1.02649 1.02649
1.02644 1.02645 1.0265 1.0265 1.02645 1.02644 1.02649 1.02649 1.02644 1.02645
1.0265 1.0265 1.02645 1.02644 1.02649 1.02649 1.02644 1.02644 1.0265 1.02649
1.02643 1.02643 1.02649 1.0265 1.02644 1.02643 1.02649 1.02649 1.02644 1.02645
1.0265 1.0265 1.02645 1.02644 1.02649 1.02649 1.02644 1.02645 1.0265 1.0265
1.02645 1.02644 1.02649 1.02649 1.02644 1.02644 1.0265 1.02649 1.02643 1.02643
1.02649 1.02649 1.02644 1.02643 1.02648 1.02649 1.02644 1.02644 1.0265 1.0265
1.02645 1.02644 1.02648 1.02648 1.02644 1.02645 1.0265 1.0265 1.02645 1.02644
1.02649 1.02649 1.02644 1.02644 1.02649 1.02649 1.02643 1.02643 1.02649 1.02649
1.02644 1.02643 1.02648 1.02648 1.02643 1.02644 1.02649 1.02649 1.02644 1.02643
1.02648 1.02648 1.02643 1.02644 1.02649 1.02649 1.02644 1.02643 1.02648 1.02648
1.02643 1.02644 1.02649 1.02648 1.02643 1.02643 1.02648 1.02648 1.02644 1.02642
1.02647 1.02647 1.02643 1.02644 1.02648 1.02649 1.02644 1.02643 1.02647 1.02647
1.02643 1.02644 1.02649 1.02648 1.02644 1.02643 1.02647 1.02648 1.02643 1.02644
1.02648 1.02648 1.02643 1.02642 1.02647 1.02647 1.02643 1.02641 1.02646 1.02646
1.02642 1.02643 1.02647 1.02647 1.02643 1.02642 1.02646 1.02646 1.02642 1.02643
1.02648 1.02647 1.02643 1.02642 1.02646 1.02647 1.02642 1.02643 1.02647 1.02647
1.02642 1.0264 1.02645 1.02646 1.02641 1.0264 1.02644 1.02645 1.02641 1.02642
1.02646 1.02646 1.02642 1.0264 1.02644 1.02644 1.0264 1.02642 1.02646 1.02646
1.02642 1.02641 1.02645 1.02645 1.0264 1.02641 1.02645 1.02645 1.0264 1.02638
1.02643 1.02643 1.02639 1.02638 1.02642 1.02642 1.02639 1.0264 1.02643 1.02644
1.0264 1.02638 1.02642 1.02642 1.02638 1.0264 1.02644 1.02643 1.0264 1.02639
1.02642 1.02642 1.02638 1.02639 1.02643 1.02643 1.02638 1.02635 1.02639 1.02639
1.02637 1.02635 1.02638 1.02639 1.02636 1.02637 1.0264 1.0264 1.02637 1.02636
1.02639 1.02639 1.02636 1.02637 1.0264 1.0264 1.02637 1.02636 1.02639 1.02639
1.02636 1.02637 1.02639 1.02639 1.02635 1.02631 1.02634 1.02635 1.02632 1.02631
1.02634 1.02634 1.02632 1.02632 1.02635 1.02635 1.02633 1.02631 1.02634 1.02634
1.02631 1.02633 1.02635 1.02635 1.02633 1.02632 1.02634 1.02634 1.02631 1.02632
1.02634 1.02634 1.02631 1.02624 1.02627 1.02627 1.02626 1.02624 1.02626 1.02627
1.02625 1.02626 1.02628 1.02628 1.02627 1.02625 1.02626 1.02627 1.02625 1.02626
1.02628 1.02628 1.02626 1.02625 1.02627 1.02626 1.02624 1.02626 1.02627 1.02627
1.02624 1.02614 1.02615 1.02616 1.02615 1.02614 1.02615 1.02615 1.02615 1.02616
1.02617 1.02617 1.02616 1.02615 1.02615 1.02615 1.02615 1.02616 1.02617 1.02617
1.02616 1.02615 1.02615 1.02615 1.02614 1.02615 1.02616 1.02615 1.02614 
YCH3OHfuel 1 840 float
0.898366 0.898697 0.898684 0.898524 0.898619 0.898803 0.89865 0.89845 0.898698 0.898867 0.898831
0.898638 0.898531 0.898674 0.898668 0.898523 0.898646 0.898835 0.898866 0.898694 0.898458
0.898655 0.898801 0.898618 0.898519 0.898684 0.898698 0.898367 0.89854 0.898875 0.898866
0.898683 0.898784 0.898981 0.898836 0.898609 0.898857 0.899036 0.899003 0.898799 0.898699
0.89886 0.898854 0.89869 0.898807 0.899006 0.899035 0.898853 0.898617 0.898841 0.898979
0.898784 0.898679 0.898866 0.898877 0.898541 0.89872 0.899043 0.899038 0.898845 0.898947
0.899145 0.899012 0.898774 0.899011 0.899191 0.899162 0.898958 0.898868 0.899035 0.899029
0.89886 0.898966 0.899165 0.89919 0.899007 0.898782 0.899017 0.899143 0.898947 0.898841
0.899038 0.899044 0.898721 0.898897 0.899197 0.899194 0.899004 0.899102 0.899291 0.899174
0.898938 0.899156 0.899329 0.899305 0.899109 0.899031 0.899194 0.899189 0.899024 0.899117
0.899308 0.899328 0.899153 0.898946 0.899178 0.899289 0.899101 0.899 0.899194 0.899198
0.898898 0.899064 0.899334 0.899334 0.899154 0.899245 0.89942 0.899319 0.899096 0.899288
0.89945 0.89943 0.899249 0.899184 0.899337 0.899332 0.899177 0.899255 0.899433 0.899449
0.899285 0.899104 0.899322 0.899418 0.899244 0.89915 0.899334 0.899335 0.899065 0.899218
0.899455 0.899455 0.899291 0.899373 0.899531 0.899445 0.899243 0.899407 0.899553 0.899538
0.899374 0.899321 0.89946 0.899456 0.899315 0.899379 0.89954 0.899553 0.899404 0.899249
0.899448 0.899529 0.899372 0.899287 0.899455 0.899456 0.899218 0.899354 0.899558 0.899559
0.899412 0.899485 0.899625 0.899553 0.899374 0.89951 0.899641 0.899629 0.899483 0.899442
0.899566 0.899562 0.899437 0.899488 0.89963 0.899641 0.899507 0.899379 0.899555 0.899623
0.899485 0.899409 0.899559 0.899559 0.899355 0.899473 0.899646 0.899646 0.899518 0.899582
0.899703 0.899644 0.899488 0.899599 0.899714 0.899704 0.899578 0.899546 0.899655 0.899651
0.899542 0.899582 0.899706 0.899714 0.899597 0.899493 0.899646 0.899701 0.899581 0.899516
0.899647 0.899647 0.899473 0.899574 0.89972 0.899719 0.899609 0.899663 0.899767 0.899719
0.899586 0.899675 0.899775 0.899767 0.899658 0.899634 0.899728 0.899725 0.899631 0.899661
0.899768 0.899774 0.899673 0.89959 0.899721 0.899765 0.899663 0.899607 0.899719 0.89972
0.899575 0.899659 0.89978 0.899779 0.899686 0.899732 0.899819 0.899781 0.899669 0.899738
0.899824 0.899817 0.899725 0.899708 0.899788 0.899786 0.899706 0.899728 0.899818 0.899824