# vtk DataFile Version 2.0
fuelOutlet
ASCII
DATASET POLYDATA
POINTS 1085 float
0.0039544 0.001 0.022 0.0040044 0.001 0.022 0.0040044 0.0015 0.022 0.0039544 0.0015
0.022 0.0040044 0.002 0.022 0.0039544 0.002 0.022 0.0040044 0.0025 0.022
0.0039544 0.0025 0.022 0.0040044 0.003 0.022 0.0039544 0.003 0.022 0.0039544
0.004 0.022 0.0040044 0.004 0.022 0.0040044 0.0045 0.022 0.0039544 0.0045
0.022 0.0040044 0.005 0.022 0.0039544 0.005 0.022 0.0040044 0.0055 0.022
0.0039544 0.0055 0.022 0.0040044 0.006 0.022 0.0039544 0.006 0.022 0.0039544
0.007 0.022 0.0040044 0.007 0.022 0.0040044 0.0075 0.022 0.0039544 0.0075
0.022 0.0040044 0.008 0.022 0.0039544 0.008 0.022 0.0040044 0.0085 0.022
0.0039544 0.0085 0.022 0.0040044 0.009 0.022 0.0039544 0.009 0.022 0.0039544
0.01 0.022 0.0040044 0.01 0.022 0.0040044 0.0105 0.022 0.0039544 0.0105
0.022 0.0040044 0.011 0.022 0.0039544 0.011 0.022 0.0040044 0.0115 0.022
0.0039544 0.0115 0.022 0.0040044 0.012 0.022 0.0039544 0.012 0.022 0.0039544
0.013 0.022 0.0040044 0.013 0.022 0.0040044 0.0135 0.022 0.0039544 0.0135
0.022 0.0040044 0.014 0.022 0.0039544 0.014 0.022 0.0040044 0.0145 0.022
0.0039544 0.0145 0.022 0.0040044 0.015 0.022 0.0039544 0.015 0.022 0.0039544
0.016 0.022 0.0040044 0.016 0.022 0.0040044 0.0165 0.022 0.0039544 0.0165
0.022 0.0040044 0.017 0.022 0.0039544 0.017 0.022 0.0040044 0.0175 0.022
0.0039544 0.0175 0.022 0.0040044 0.018 0.022 0.0039544 0.018 0.022 0.0039544
0.019 0.022 0.0040044 0.019 0.022 0.0040044 0.0195 0.022 0.0039544 0.0195
0.022 0.0040044 0.02 0.022 0.0039544 0.02 0.022 0.0040044 0.0205 0.022
0.0039544 0.0205 0.022 0.0040044 0.021 0.022 0.0039544 0.021 0.022 0.0040544
0.001 0.022 0.0040544 0.0015 0.022 0.0040544 0.002 0.022 0.0040544 0.0025
0.022 0.0040544 0.003 0.022 0.0040544 0.004 0.022 0.0040544 0.0045 0.022
0.0040544 0.005 0.022 0.0040544 0.0055 0.022 0.0040544 0.006 0.022 0.0040544
0.007 0.022 0.0040544 0.0075 0.022 0.0040544 0.008 0.022 0.0040544 0.0085
0.022 0.0040544 0.009 0.022 0.0040544 0.01 0.022 0.0040544 0.0105 0.022
0.0040544 0.011 0.022 0.0040544 0.0115 0.022 0.0040544 0.012 0.022 0.0040544
0.013 0.022 0.0040544 0.0135 0.022 0.0040544 0.014 0.022 0.0040544 0.0145
0.022 0.0040544 0.015 0.022 0.0040544 0.016 0.022 0.0040544 0.0165 0.022
0.0040544 0.017 0.022 0.0040544 0.0175 0.022 0.0040544 0.018 0.022 0.0040544
0.019 0.022 0.0040544 0.0195 0.022 0.0040544 0.02 0.022 0.0040544 0.0205
0.022 0.0040544 0.021 0.022 0.0041044 0.001 0.022 0.0041044 0.0015 0.022
0.0041044 0.002 0.022 0.0041044 0.0025 0.022 0.0041044 0.003 0.022 0.0041044
0.004 0.022 0.0041044 0.0045 0.022 0.0041044 0.005 0.022 0.0041044 0.0055
0.022 0.0041044 0.006 0.022 0.0041044 0.007 0.022 0.0041044 0.0075 0.022
0.0041044 0.008 0.022 0.0041044 0.0085 0.022 0.0041044 0.009 0.022 0.0041044
0.01 0.022 0.0041044 0.0105 0.022 0.0041044 0.011 0.022 0.0041044 0.0115
0.022 0.0041044 0.012 0.022 0.0041044 0.013 0.022 0.0041044 0.0135 0.022
0.0041044 0.014 0.022 0.0041044 0.0145 0.022 0.0041044 0.015 0.022 0.0041044
0.016 0.022 0.0041044 0.0165 0.022 0.0041044 0.017 0.022 0.0041044 0.0175
0.022 0.0041044 0.018 0.022 0.0041044 0.019 0.022 0.0041044 0.0195 0.022
0.0041044 0.02 0.022 0.0041044 0.0205 0.022 0.0041044 0.021 0.022 0.0041544
0.001 0.022 0.0041544 0.0015 0.022 0.0041544 0.002 0.022 0.0041544 0.0025
0.022 0.0041544 0.003 0.022 0.0041544 0.004 0.022 0.0041544 0.0045 0.022
0.0041544 0.005 0.022 0.0041544 0.0055 0.022 0.0041544 0.006 0.022 0.0041544
0.007 0.022 0.0041544 0.0075 0.022 0.0041544 0.008 0.022 0.0041544 0.0085
0.022 0.0041544 0.009 0.022 0.0041544 0.01 0.022 0.0041544 0.0105 0.022
0.0041544 0.011 0.022 0.0041544 0.0115 0.022 0.0041544 0.012 0.022 0.0041544
0.013 0.022 0.0041544 0.0135 0.022 0.0041544 0.014 0.022 0.0041544 0.0145
0.022 0.0041544 0.015 0.022 0.0041544 0.016 0.022 0.0041544 0.0165 0.022
0.0041544 0.017 0.022 0.0041544 0.0175 0.022 0.0041544 0.018 0.022 0.0041544
0.019 0.022 0.0041544 0.0195 0.022 0.0041544 0.02 0.022 0.0041544 0.0205
0.022 0.0041544 0.021 0.022 0.0042044 0.001 0.022 0.0042044 0.0015 0.022
0.0042044 0.002 0.022 0.0042044 0.0025 0.022 0.0042044 0.003 0.022 0.0042044
0.004 0.022 0.0042044 0.0045 0.022 0.0042044 0.005 0.022 0.0042044 0.0055
0.022 0.0042044 0.006 0.022 0.0042044 0.007 0.022 0.0042044 0.0075 0.022
0.0042044 0.008 0.022 0.0042044 0.0085 0.022 0.0042044 0.009 0.022 0.0042044
0.01 0.022 0.0042044 0.0105 0.022 0.0042044 0.011 0.022 0.0042044 0.0115
0.022 0.0042044 0.012 0.022 0.0042044 0.013 0.022 0.0042044 0.0135 0.022
0.0042044 0.014 0.022 0.0042044 0.0145 0.022 0.0042044 0.015 0.022 0.0042044
0.016 0.022 0.0042044 0.0165 0.022 0.0042044 0.017 0.022 0.0042044 0.0175
0.022 0.0042044 0.018 0.022 0.0042044 0.019 0.022 0.0042044 0.0195 0.022
0.0042044 0.02 0.022 0.0042044 0.0205 0.022 0.0042044 0.021 0.022 0.0042544
0.001 0.022 0.0042544 0.0015 0.022 0.0042544 0.002 0.022 0.0042544 0.0025
0.022 0.0042544 0.003 0.022 0.0042544 0.004 0.022 0.0042544 0.0045 0.022
0.0042544 0.005 0.022 0.0042544 0.0055 0.022 0.0042544 0.006 0.022 0.0042544
0.007 0.022 0.0042544 0.0075 0.022 0.0042544 0.008 0.022 0.0042544 0.0085
0.022 0.0042544 0.009 0.022 0.0042544 0.01 0.022 0.0042544 0.0105 0.022
0.0042544 0.011 0.022 0.0042544 0.0115 0.022 0.0042544 0.012 0.022 0.0042544
0.013 0.022 0.0042544 0.0135 0.022 0.0042544 0.014 0.022 0.0042544 0.0145
0.022 0.0042544 0.015 0.022 0.0042544 0.016 0.022 0.0042544 0.0165 0.022
0.0042544 0.017 0.022 0.0042544 0.0175 0.022 0.0042544 0.018 0.022 0.0042544
0.019 0.022 0.0042544 0.0195 0.022 0.0042544 0.02 0.022 0.0042544 0.0205
0.022 0.0042544 0.021 0.022 0.0043044 0.001 0.022 0.0043044 0.0015 0.022
0.0043044 0.002 0.022 0.0043044 0.0025 0.022 0.0043044 0.003 0.022 0.0043044
0.004 0.022 0.0043044 0.0045 0.022 0.0043044 0.005 0.022 0.0043044 0.0055
0.022 0.0043044 0.006 0.022 0.0043044 0.007 0.022 0.0043044 0.0075 0.022
0.0043044 0.008 0.022 0.0043044 0.0085 0.022 0.0043044 0.009 0.022 0.0043044
0.01 0.022 0.0043044 0.0105 0.022 0.0043044 0.011 0.022 0.0043044 0.0115
0.022 0.0043044 0.012 0.022 0.0043044 0.013 0.022 0.0043044 0.0135 0.022
0.0043044 0.014 0.022 0.0043044 0.0145 0.022 0.0043044 0.015 0.022 0.0043044
0.016 0.022 0.0043044 0.0165 0.022 0.0043044 0.017 0.022 0.0043044 0.0175
0.022 0.0043044 0.018 0.022 0.0043044 0.019 0.022 0.0043044 0.0195 0.022
0.0043044 0.02 0.022 0.0043044 0.0205 0.022 0.0043044 0.021 0.022 0.0043544
0.001 0.022 0.0043544 0.0015 0.022 0.0043544 0.002 0.022 0.0043544 0.0025
0.022 0.0043544 0.003 0.022 0.0043544 0.004 0.022 0.0043544 0.0045 0.022
0.0043544 0.005 0.022 0.0043544 0.0055 0.022 0.0043544 0.006 0.022 0.0043544
0.007 0.022 0.0043544 0.0075 0.022 0.0043544 0.008 0.022 0.0043544 0.0085
0.022 0.0043544 0.009 0.022 0.0043544 0.01 0.022 0.0043544 0.0105 0.022
0.0043544 0.011 0.022 0.0043544 0.0115 0.022 0.0043544 0.012 0.022 0.0043544
0.013 0.022 0.0043544 0.0135 0.022 0.0043544 0.014 0.022 0.0043544 0.0145
0.022 0.0043544 0.015 0.022 0.0043544 0.016 0.022 0.0043544 0.0165 0.022
0.0043544 0.017 0.022 0.0043544 0.0175 0.022 0.0043544 0.018 0.022 0.0043544
0.019 0.022 0.0043544 0.0195 0.022 0.0043544 0.02 0.022 0.0043544 0.0205
0.022 0.0043544 0.021 0.022 0.0044044 0.001 0.022 0.0044044 0.0015 0.022
0.0044044 0.002 0.022 0.0044044 0.0025 0.022 0.0044044 0.003 0.022 0.0044044
0.004 0.022 0.0044044 0.0045 0.022 0.0044044 0.005 0.022 0.0044044 0.0055
0.022 0.0044044 0.006 0.022 0.0044044 0.007 0.022 0.0044044 0.0075 0.022
0.0044044 0.008 0.022 0.0044044 0.0085 0.022 0.0044044 0.009 0.022 0.0044044
0.01 0.022 0.0044044 0.0105 0.022 0.0044044 0.011 0.022 0.0044044 0.0115
0.022 0.0044044 0.012 0.022 0.0044044 0.013 0.022 0.0044044 0.0135 0.022
0.0044044 0.014 0.022 0.0044044 0.0145 0.022 0.0044044 0.015 0.022 0.0044044
0.016 0.022 0.0044044 0.0165 0.022 0.0044044 0.017 0.022 0.0044044 0.0175
0.022 0.0044044 0.018 0.022 0.0044044 0.019 0.022 0.0044044 0.0195 0.022
0.0044044 0.02 0.022 0.0044044 0.0205 0.022 0.0044044 0.021 0.022 0.0044544
0.001 0.022 0.0044544 0.0015 0.022 0.0044544 0.002 0.022 0.0044544 0.0025
0.022 0.0044544 0.003 0.022 0.0044544 0.004 0.022 0.0044544 0.0045 0.022
0.0044544 0.005 0.022 0.0044544 0.0055 0.022 0.0044544 0.006 0.022 0.0044544
0.007 0.022 0.0044544 0.0075 0.022 0.0044544 0.008 0.022 0.0044544 0.0085
0.022 0.0044544 0.009 0.022 0.0044544 0.01 0.022 0.0044544 0.0105 0.022
0.0044544 0.011 0.022 0.0044544 0.0115 0.022 0.0044544 0.012 0.022 0.0044544
0.013 0.022 0.0044544 0.0135 0.022 0.0044544 0.014 0.022 0.0044544 0.0145
0.022 0.0044544 0.015 0.022 0.0044544 0.016 0.022 0.0044544 0.0165 0.022
0.0044544 0.017 0.022 0.0044544 0.0175 0.022 0.0044544 0.018 0.022 0.0044544
0.019 0.022 0.0044544 0.0195 0.022 0.0044544 0.02 0.022 0.0044544 0.0205
0.022 0.0044544 0.021 0.022 0.0045044 0.001 0.022 0.0045044 0.0015 0.022
0.0045044 0.002 0.022 0.0045044 0.0025 0.022 0.0045044 0.003 0.022 0.0045044
0.004 0.022 0.0045044 0.0045 0.022 0.0045044 0.005 0.022 0.0045044 0.0055
0.022 0.0045044 0.006 0.022 0.0045044 0.007 0.022 0.0045044 0.0075 0.022
0.0045044 0.008 0.022 0.0045044 0.0085 0.022 0.0045044 0.009 0.022 0.0045044
0.01 0.022 0.0045044 0.0105 0.022 0.0045044 0.011 0.022 0.0045044 0.0115
0.022 0.0045044 0.012 0.022 0.0045044 0.013 0.022 0.0045044 0.0135 0.022
0.0045044 0.014 0.022 0.0045044 0.0145 0.022 0.0045044 0.015 0.022 0.0045044
0.016 0.022 0.0045044 0.0165 0.022 0.0045044 0.017 0.022 0.0045044 0.0175
0.022 0.0045044 0.018 0.022 0.0045044 0.019 0.022 0.0045044 0.0195 0.022
0.0045044 0.02 0.022 0.0045044 0.0205 0.022 0.0045044 0.021 0.022 0.0045544
0.001 0.022 0.0045544 0.0015 0.022 0.0045544 0.002 0.022 0.0045544 0.0025
0.022 0.0045544 0.003 0.022 0.0045544 0.004 0.022 0.0045544 0.0045 0.022
0.0045544 0.005 0.022 0.0045544 0.0055 0.022 0.0045544 0.006 0.022 0.0045544
0.007 0.022 0.0045544 0.0075 0.022 0.0045544 0.008 0.022 0.0045544 0.0085
0.022 0.0045544 0.009 0.022 0.0045544 0.01 0.022 0.0045544 0.0105 0.022
0.0045544 0.011 0.022 0.0045544 0.0115 0.022 0.0045544 0.012 0.022 0.0045544
0.013 0.022 0.0045544 0.0135 0.022 0.0045544 0.014 0.022 0.0045544 0.0145
[...]
CELL_DATA 840
FIELD attributes 16
patchID 1 840 float
3 3 3 3 3 3 3 3 3 3 3
3 3 3 3 3 3 3 3 3 3
3 3 3 3 3 3 3 3 3 3
3 3 3 3 3 3 3 3 3 3
3 3 3 3 3 3 3 3 3 3
3 3 3 3 3 3 3 3 3 3
3 3 3 3 3 3 3 3 3 3
3 3 3 3 3 3 3 3 3 3
3 3 3 3 3 3 3 3 3 3
3 3 3 3 3 3 3 3 3 3
3 3 3 3 3 3 3 3 3 3
3 3 3 3 3 3 3 3 3 3
3 3 3 3 3 3 3 3 3 3
3 3 3 3 3 3 3 3 3 3
3 3 3 3 3 3 3 3 3 3
3 3 3 3 3 3 3 3 3 3
3 3 3 3 3 3 3 3 3 3
3 3 3 3 3 3 3 3 3 3
3 3 3 3 3 3 3 3 3 3
3 3 3 3 3 3 3 3 3 3
3 3 3 3 3 3 3 3 3 3
3 3 3 3 3 3 3 3 3 3
3 3 3 3 3 3 3 3 3 3
3 3 3 3 3 3 3 3 3 3
3 3 3 3 3 3 3 3 3 3
3 3 3 3 3 3 3 3 3 3
3 3 3 3 3 3 3 3 3 3
3 3 3 3 3 3 3 3 3 3
3 3 3 3 3 3 3 3 3 3
3 3 3 3 3 3 3 3 3 3
3 3 3 3 3 3 3 3 3 3
3 3 3 3 3 3 3 3 3 3
3 3 3 3 3 3 3 3 3 3
3 3 3 3 3 3 3 3 3 3
3 3 3 3 3 3 3 3 3 3
3 3 3 3 3 3 3 3 3 3
3 3 3 3 3 3 3 3 3 3
3 3 3 3 3 3 3 3 3 3
3 3 3 3 3 3 3 3 3 3
3 3 3 3 3 3 3 3 3 3
3 3 3 3 3 3 3 3 3 3
3 3 3 3 3 3 3 3 3 3
3 3 3 3 3 3 3 3 3 3
3 3 3 3 3 3 3 3 3 3
3 3 3 3 3 3 3 3 3 3
3 3 3 3 3 3 3 3 3 3
3 3 3 3 3 3 3 3 3 3
3 3 3 3 3 3 3 3 3 3
3 3 3 3 3 3 3 3 3 3
3 3 3 3 3 3 3 3 3 3
3 3 3 3 3 3 3 3 3 3
3 3 3 3 3 3 3 3 3 3
3 3 3 3 3 3 3 3 3 3
3 3 3 3 3 3 3 3 3 3
3 3 3 3 3 3 3 3 3 3
3 3 3 3 3 3 3 3 3 3
3 3 3 3 3 3 3 3 3 3
3 3 3 3 3 3 3 3 3 3
3 3 3 3 3 3 3 3 3 3
3 3 3 3 3 3 3 3 3 3
3 3 3 3 3 3 3 3 3 3
3 3 3 3 3 3 3 3 3 3
3 3 3 3 3 3 3 3 3 3
3 3 3 3 3 3 3 3 3 3
3 3 3 3 3 3 3 3 3 3
3 3 3 3 3 3 3 3 3 3
3 3 3 3 3 3 3 3 3 3
3 3 3 3 3 3 3 3 3 3
3 3 3 3 3 3 3 3 3 3
3 3 3 3 3 3 3 3 3 3
3 3 3 3 3 3 3 3 3 3
3 3 3 3 3 3 3 3 3 3
3 3 3 3 3 3 3 3 3 3
3 3 3 3 3 3 3 3 3 3
3 3 3 3 3 3 3 3 3 3
3 3 3 3 3 3 3 3 3 3
3 3 3 3 3 3 3 3 3 3
3 3 3 3 3 3 3 3 3 3
3 3 3 3 3 3 3 3 3 3
3 3 3 3 3 3 3 3 3 3
3 3 3 3 3 3 3 3 3 3
3 3 3 3 3 3 3 3 3 3
3 3 3 3 3 3 3 3 3 3
3 3 3 3 3 3 3 3 3 
diffH2Ofuel 1 840 float
0 0 0 0 0 0 0 0 0 0 0
0 0 0 0 0 0 0 0 0 0
0 0 0 0 0 0 0 0 0 0
0 0 0 0 0 0 0 0 0 0
0 0 0 0 0 0 0 0 0 0
0 0 0 0 0 0 0 0 0 0
0 0 0 0 0 0 0 0 0 0
0 0 0 0 0 0 0 0 0 0
0 0 0 0 0 0 0 0 0 0
0 0 0 0 0 0 0 0 0 0
0 0 0 0 0 0 0 0 0 0
0 0 0 0 0 0 0 0 0 0
0 0 0 0 0 0 0 0 0 0
0 0 0 0 0 0 0 0 0 0
0 0 0 0 0 0 0 0 0 0
0 0 0 0 0 0 0 0 0 0
0 0 0 0 0 0 0 0 0 0
0 0 0 0 0 0 0 0 0 0
0 0 0 0 0 0 0 0 0 0
0 0 0 0 0 0 0 0 0 0
0 0 0 0 0 0 0 0 0 0
0 0 0 0 0 0 0 0 0 0
0 0 0 0 0 0 0 0 0 0
0 0 0 0 0 0 0 0 0 0
0 0 0 0 0 0 0 0 0 0
0 0 0 0 0 0 0 0 0 0
0 0 0 0 0 0 0 0 0 0
0 0 0 0 0 0 0 0 0 0
0 0 0 0 0 0 0 0 0 0
0 0 0 0 0 0 0 0 0 0
0 0 0 0 0 0 0 0 0 0
0 0 0 0 0 0 0 0 0 0
0 0 0 0 0 0 0 0 0 0
0 0 0 0 0 0 0 0 0 0
0 0 0 0 0 0 0 0 0 0
0 0 0 0 0 0 0 0 0 0
0 0 0 0 0 0 0 0 0 0
0 0 0 0 0 0 0 0 0 0
0 0 0 0 0 0 0 0 0 0
0 0 0 0 0 0 0 0 0 0
0 0 0 0 0 0 0 0 0 0
0 0 0 0 0 0 0 0 0 0
0 0 0 0 0 0 0 0 0 0
0 0 0 0 0 0 0 0 0 0
0 0 0 0 0 0 0 0 0 0
0 0 0 0 0 0 0 0 0 0
0 0 0 0 0 0 0 0 0 0
0 0 0 0 0 0 0 0 0 0
0 0 0 0 0 0 0 0 0 0
0 0 0 0 0 0 0 0 0 0
0 0 0 0 0 0 0 0 0 0
0 0 0 0 0 0 0 0 0 0
0 0 0 0 0 0 0 0 0 0
0 0 0 0 0 0 0 0 0 0
0 0 0 0 0 0 0 0 0 0
0 0 0 0 0 0 0 0 0 0
0 0 0 0 0 0 0 0 0 0
0 0 0 0 0 0 0 0 0 0
0 0 0 0 0 0 0 0 0 0
0 0 0 0 0 0 0 0 0 0
0 0 0 0 0 0 0 0 0 0
0 0 0 0 0 0 0 0 0 0
0 0 0 0 0 0 0 0 0 0
0 0 0 0 0 0 0 0 0 0
0 0 0 0 0 0 0 0 0 0
0 0 0 0 0 0 0 0 0 0
0 0 0 0 0 0 0 0 0 0
0 0 0 0 0 0 0 0 0 0
0 0 0 0 0 0 0 0 0 0
0 0 0 0 0 0 0 0 0 0
0 0 0 0 0 0 0 0 0 0
0 0 0 0 0 0 0 0 0 0
0 0 0 0 0 0 0 0 0 0
0 0 0 0 0 0 0 0 0 0
0 0 0 0 0 0 0 0 0 0
0 0 0 0 0 0 0 0 0 0
0 0 0 0 0 0 0 0 0 0
0 0 0 0 0 0 0 0 0 0
0 0 0 0 0 0 0 0 0 0
0 0 0 0 0 0 0 0 0 0
0 0 0 0 0 0 0 0 0 0
0 0 0 0 0 0 0 0 0 0
0 0 0 0 0 0 0 0 0 0
0 0 0 0 0 0 0 0 0 
XCH3OHfuel 1 840 float
0.833759 0.834243 0.8342 0.834057 0.833935 0.834167 0.834168 0.834159 0.834046 0.834154 0.834134
0.834052 0.834138 0.83418 0.83418 0.834136 0.834054 0.834135 0.834152 0.834045 0.834164
0.834171 0.834167 0.833936 0.834055 0.834198 0.834244 0.833759 0.833903 0.83435 0.834313
0.834172 0.83406 0.834284 0.834286 0.834271 0.834166 0.834274 0.834255 0.834173 0.834251
0.834298 0.834298 0.834249 0.834175 0.834256 0.834271 0.834165 0.834275 0.834289 0.834284
0.834061 0.83417 0.834311 0.834351 0.833902 0.834047 0.83445 0.834417 0.834282 0.834185
0.834392 0.834396 0.834376 0.834283 0.834385 0.834368 0.83429 0.834358 0.834407 0.834407
0.834356 0.834292 0.834369 0.834383 0.834282 0.83438 0.834398 0.834393 0.834185 0.834281
0.834416 0.83445 0.834046 0.834185 0.834539 0.834512 0.834385 0.834303 0.834491 0.834495
0.834472 0.834392 0.834485 0.834471 0.834398 0.834456 0.834504 0.834504 0.834454 0.8344
0.834472 0.834483 0.834391 0.834476 0.834497 0.834491 0.834304 0.834384 0.834511 0.83454
0.834184 0.834312 0.834619 0.834596 0.834479 0.834413 0.834579 0.834583 0.834559 0.83449
0.834574 0.834562 0.834496 0.834545 0.834591 0.834591 0.834543 0.834499 0.834562 0.834573
0.83449 0.834562 0.834584 0.834579 0.834414 0.834478 0.834595 0.83462 0.834312 0.834428
0.834688 0.834668 0.834563 0.834512 0.834656 0.834659 0.834635 0.834578 0.834652 0.834641
0.834583 0.834622 0.834665 0.834666 0.834621 0.834585 0.834642 0.834651 0.834577 0.834638
0.83466 0.834656 0.834512 0.834562 0.834668 0.83469 0.834428 0.834529 0.834748 0.834731
0.834638 0.834598 0.834721 0.834724 0.834701 0.834654 0.834718 0.834709 0.834658 0.83469
0.834729 0.834729 0.834689 0.83466 0.83471 0.834717 0.834653 0.834703 0.834725 0.834721
0.834598 0.834637 0.83473 0.834749 0.83453 0.834617 0.834798 0.834783 0.834702 0.834673
0.834777 0.834778 0.834757 0.834719 0.834774 0.834766 0.834722 0.834747 0.834783 0.834783
0.834746 0.834724 0.834767 0.834773 0.834718 0.834759 0.834779 0.834776 0.834672 0.834701
0.834783 0.834799 0.834617 0.834691 0.83484 0.834828 0.834757 0.834736 0.834823 0.834824
0.834804 0.834774 0.834821 0.834814 0.834776 0.834796 0.834828 0.834828 0.834795 0.834778
0.834815 0.83482 0.834773 0.834806 0.834825 0.834822 0.834735 0.834756 0.834827 0.834841
0.834691 0.834753 0.834874 0.834864 0.834804 0.834789 0.834861 0.834863 0.834844 0.834819
0.83486 0.834854 0.834821 0.834837 0.834865 0.834866 0.834836 0.834823 0.834855 0.834859
0.834819 0.834846 0.834863 0.834861 0.834788 0.834803 0.834864 0.834876 0.834753 0.834804
0.834903 0.834895 0.834844 0.834833 0.834893 0.834894 0.834877 0.834858 0.834892 0.834887
0.834859 0.834871 0.834896 0.834896 0.83487 0.834861 0.834888 0.834891 0.834857 0.834878
0.834894 0.834892 0.834832 0.834843 0.834895 0.834904 0.834805 0.834847 0.834926 0.83492
0.834876 0.834869 0.834918 0.834919 0.834904 0.834889 0.834918 0.834914 0.83489 0.834899
0.834921 0.834921 0.834898 0.834891 0.834914 0.834917 0.834889 0.834905 0.834919 0.834918
0.834868 0.834876 0.834919 0.834927 0.834847 0.834881 0.834944 0.834939 0.834904 0.834899
0.834939 0.83494 0.834926 0.834915 0.834938 0.834935 0.834915 0.834922 0.83494 0.834941
0.834921 0.834917 0.834936 0.834938 0.834914 0.834927 0.834939 0.834938 0.834898 0.834903
0.834939 0.834945 0.834882 0.834909 0.834959 0.834955 0.834926 0.834923 0.834955 0.834956
0.834944 0.834935 0.834955 0.834952 0.834935 0.83494 0.834956 0.834956 0.83494 0.834937
0.834952 0.834954 0.834935 0.834945 0.834955 0.834954 0.834922 0.834926 0.834955 0.83496
0.83491 0.834932 0.83497 0.834967 0.834944 0.834942 0.834967 0.834968 0.834958 0.834951
0.834967 0.834965 0.834951 0.834955 0.834968 0.834969 0.834955 0.834952 0.834966 0.834967
0.834951 0.834959 0.834968 0.834967 0.834942 0.834944 0.834967 0.834971 0.834932 0.834949
0.834979 0.834976 0.834958 0.834957 0.834977 0.834977 0.834969 0.834964 0.834977 0.834975
0.834964 0.834966 0.834977 0.834978 0.834966 0.834965 0.834975 0.834976 0.834964 0.83497
0.834977 0.834976 0.834957 0.834958 0.834977 0.834979 0.834949 0.834963 0.834985 0.834984
0.834969 0.834969 0.834984 0.834984 0.834977 0.834974 0.834984 0.834982 0.834974 0.834976
0.834984 0.834984 0.834975 0.834975 0.834983 0.834984 0.834974 0.834978 0.834984 0.834984
0.834968 0.834969 0.834984 0.834986 0.834963 0.834973 0.83499 0.834989 0.834978 0.834978
0.834989 0.834989 0.834984 0.834981 0.834989 0.834988 0.834981 0.834983 0.834989 0.83499
0.834982 0.834982 0.834989 0.834989 0.834981 0.834984 0.834989 0.834989 0.834977 0.834978
0.834989 0.83499 0.834974 0.834981 0.834994 0.834993 0.834984 0.834985 0.834993 0.834993
0.834989 0.834987 0.834993 0.834992 0.834987 0.834988 0.834993 0.834993 0.834988 0.834988
0.834993 0.834993 0.834987 0.834989 0.834993 0.834993 0.834984 0.834984 0.834993 0.834994
0.834981 0.834987 0.834996 0.834996 0.834989 0.83499 0.834996 0.834996 0.834993 0.834991
0.834996 0.834995 0.834991 0.834992 0.834996 0.834996 0.834992 0.834992 0.834996 0.834996
0.834992 0.834993 0.834996 0.834996 0.834989 0.834989 0.834996 0.834996 0.834987 0.834992
0.834998 0.834998 0.834993 0.834993 0.834998 0.834998 0.834996 0.834995 0.834998 0.834997
0.834994 0.834995 0.834998 0.834998 0.834995 0.834995 0.834998 0.834998 0.834995 0.834996
0.834998 0.834998 0.834993 0.834993 0.834998 0.834998 0.834992 0.834995 0.834999 0.834999
0.834996 0.834996 0.834999 0.834999 0.834997 0.834997 0.834999 0.834999 0.834997 0.834997
0.834999 0.834999 0.834997 0.834997 0.834999 0.834999 0.834997 0.834998 0.834999 0.834999
0.834996 0.834996 0.834999 0.834999 0.834995 0.834997 0.835 0.835 0.834998 0.834998
0.835 0.835 0.834999 0.834998 0.835 0.835 0.834998 0.834998 0.835 0.835
0.834998 0.834998 0.835 0.835 0.834998 0.834999 0.835 0.835 0.834998 0.834998
0.835 0.835 0.834997 0.834999 0.835001 0.835001 0.834999 0.834999 0.835001 0.835001
0.835 0.835 0.835001 0.835001 0.835 0.835 0.835001 0.835001 0.835 0.835
0.835001 0.835001 0.835 0.835 0.835001 0.835001 0.834999 0.834999 0.835001 0.835001
0.834999 0.835 0.835001 0.835001 0.835 0.835 0.835001 0.835001 0.835001 0.835
0.835001 0.835001 0.835 0.835 0.835001 0.835001 0.835 0.835 0.835001 0.835001
0.835 0.835001 0.835001 0.835001 0.835 0.835 0.835001 0.835001 0.835 0.835001
0.835001 0.835001 0.835001 0.835001 0.835002 0.835002 0.835001 0.835001 0.835001 0.835001
0.835001 0.835001 0.835001 0.835001 0.835001 0.835001 0.835001 0.835001 0.835001 0.835001
0.835001 0.835001 0.835001 0.835001 0.835001 0.835001 0.835001 0.835001 0.835002 0.835002
0.835001 0.835001 0.835002 0.835002 0.835001 0.835001 0.835002 0.835002 0.835001 0.835001
0.835002 0.835002 0.835001 0.835001 0.835002 0.835002 0.835001 0.835001 0.835002 0.835002
0.835001 0.835001 0.835002 0.835002 0.835001 0.835001 0.835002 0.835002 0.835001 0.835002
0.835002 0.835002 0.835002 0.835002 0.835002 0.835002 0.835002 0.835001 0.835002 0.835002
0.835001 0.835002 0.835002 0.835002 0.835002 0.835002 0.835002 0.835002 0.835001 0.835001
0.835002 0.835002 0.835001 0.835002 0.835002 0.835002 0.835002 0.835002 0.835002 0.835002
0.835002 0.835002 0.835002 0.835002 0.835002 0.835002 0.835002 0.835002 0.835002 0.835002
0.835002 0.835002 0.835002 0.835002 0.835002 0.835002 0.835002 0.835002 0.835002 0.835002
0.835002 0.835002 0.835002 0.835002 0.835002 0.835002 0.835002 0.835002 0.835002 0.835002
0.835002 0.835002 0.835002 0.835002 0.835002 0.835002 0.835002 0.835002 0.835002 0.835002
0.835002 0.835002 0.835002 0.835002 0.835002 0.835002 0.835002 0.835002 0.835002 
rho 1 840 float
1.02651 1.02631 1.02632 1.0264 1.02645 1.02634 1.02634 1.02637 1.0264 1.02635 1.02636
1.02641 1.02638 1.02634 1.02634 1.02638 1.02641 1.02636 1.02635 1.0264 1.02636
1.02634 1.02634 1.02644 1.0264 1.02632 1.02631 1.02651 1.02646 1.02628 1.02629
1.02636 1.0264 1.02631 1.02631 1.02633 1.02637 1.02631 1.02632 1.02637 1.02635
1.02631 1.02631 1.02635 1.02637 1.02632 1.02631 1.02637 1.02633 1.02631 1.02631
1.0264 1.02636 1.02629 1.02628 1.02646 1.02642 1.02627 1.02627 1.02633 1.02637
1.02629 1.02629 1.02631 1.02634 1.02629 1.0263 1.02634 1.02632 1.02629 1.02629
1.02632 1.02634 1.0263 1.02629 1.02634 1.02631 1.02629 1.02629 1.02637 1.02634
1.02627 1.02626 1.02642 1.02639 1.02626 1.02627 1.02631 1.02635 1.02628 1.02628
1.0263 1.02632 1.02628 1.02629 1.02632 1.02631 1.02629 1.02629 1.02631 1.02632
1.02629 1.02628 1.02632 1.02629 1.02628 1.02628 1.02635 1.02631 1.02627 1.02626
1.02639 1.02637 1.02627 1.02627 1.02631 1.02633 1.02628 1.02628 1.02629 1.02631
1.02629 1.02629 1.02632 1.0263 1.02629 1.02629 1.0263 1.02631 1.02629 1.02629
1.02631 1.02629 1.02628 1.02628 1.02633 1.02631 1.02627 1.02627 1.02637 1.02635
1.02628 1.02629 1.02631 1.02632 1.02629 1.0263 1.0263 1.02631 1.0263 1.0263
1.02632 1.02631 1.0263 1.0263 1.02631 1.02631 1.0263 1.0263 1.02631 1.0263
1.0263 1.02629 1.02632 1.02631 1.02629 1.02628 1.02635 1.02635 1.0263 1.02631
1.02631 1.02633 1.02631 1.02632 1.02631 1.02632 1.02632 1.02632 1.02633 1.02632
1.02633 1.02633 1.02632 1.02632 1.02632 1.02632 1.02632 1.02631 1.02632 1.02631
1.02633 1.02631 1.02631 1.0263 1.02635 1.02636 1.02633 1.02633 1.02633 1.02633
1.02634 1.02634 1.02633 1.02633 1.02634 1.02635 1.02634 1.02634 1.02635 1.02635
1.02634 1.02634 1.02634 1.02634 1.02633 1.02633 1.02634 1.02634 1.02634 1.02633
1.02633 1.02633 1.02636 1.02637 1.02636 1.02636 1.02634 1.02635 1.02636 1.02637
1.02635 1.02635 1.02637 1.02637 1.02636 1.02635 1.02638 1.02638 1.02635 1.02635
1.02637 1.02637 1.02635 1.02635 1.02637 1.02636 1.02635 1.02634 1.02636 1.02636
1.02637 1.02638 1.02638 1.02639 1.02636 1.02636 1.02639 1.02639 1.02637 1.02636
1.02639 1.02639 1.02637 1.02637 1.0264 1.0264 1.02637 1.02637 1.02639 1.02639
1.02636 1.02636 1.02639 1.02639 1.02636 1.02636 1.02638 1.02638 1.02638 1.02639
1.02641 1.02641 1.02637 1.02638 1.02641 1.02641 1.02638 1.02638 1.02641 1.02642
1.02639 1.02639 1.02642 1.02642 1.02639 1.02638 1.02641 1.02641 1.02638 1.02638
1.02641 1.02641 1.02638 1.02637 1.02641 1.02641 1.02639 1.0264 1.02643 1.02643
1.02639 1.02639 1.02643 1.02643 1.02639 1.02639 1.02643 1.02644 1.0264 1.0264
1.02644 1.02644 1.0264 1.0264 1.02643 1.02643 1.02639 1.02639 1.02643 1.02643
1.02639 1.02639 1.02643 1.02643 1.0264 1.02641 1.02645 1.02645 1.0264 1.0264
1.02644 1.02645 1.02641 1.0264 1.02645 1.02645 1.02641 1.02641 1.02646 1.02646
1.02641 1.02641 1.02645 1.02645 1.0264 1.0264 1.02645 1.02645 1.0264 1.0264
1.02645 1.02645 1.02641 1.02642 1.02646 1.02646 1.02641 1.02641 1.02646 1.02646
1.02642 1.02641 1.02646 1.02647 1.02642 1.02642 1.02647 1.02647 1.02642 1.02642
1.02646 1.02646 1.02641 1.02641 1.02646 1.02646 1.02641 1.02641 1.02646 1.02646
1.02642 1.02642 1.02647 1.02647 1.02642 1.02641 1.02647 1.02647 1.02642 1.02642
1.02647 1.02648 1.02643 1.02643 1.02648 1.02648 1.02643 1.02642 1.02647 1.02647
1.02642 1.02642 1.02647 1.02647 1.02642 1.02642 1.02647 1.02647 1.02642 1.02643
1.02648 1.02648 1.02643 1.02642 1.02647 1.02648 1.02643 1.02643 1.02648 1.02648
1.02643 1.02644 1.02649 1.02648 1.02643 1.02643 1.02648 1.02648 1.02643 1.02643
1.02648 1.02648 1.02642 1.02643 1.02648 1.02648 1.02643 1.02643 1.02648 1.02648
1.02643 1.02643 1.02648 1.02648 1.02643 1.02643 1.02649 1.02649 1.02644 1.02644
1.02649 1.02649 1.02644 1.02643 1.02648 1.02648 1.02643 1.02643 1.02648 1.02648
1.02643 1.02643 1.02648 1.02648 1.02643 1.02643 1.02649 1.02649 1.02643 1.02643
1.02648 1.02649 1.02644 1.02643 1.02649 1.02649 1.02644 1.02644 1.02649 1.02649
1.02644 1.02644 1.02649 1.02649 1.02643 1.02643 1.02649 1.02649 1.02643 1.02643
1.02648 1.02649 1.02643 1.02643 1.02649 1.02649 1.02644 1.02643 1.02648 1.02649
1.02644 1.02644 1.02649 1.02649 1.02644 1.02644 1.02649 1.02649 1.02644 1.02644
1.02649 1.02649 1.02643 1.02644 1.02649 1.02649 1.02643 1.02643 1.02649 1.02649
1.02643 1.02643 1.02649 1.02649 1.02644 1.02643 1.02648 1.02649 1.02644 1.02644
1.02649 1.02649 1.02644 1.02644 1.02649 1.02649 1.02644 1.02644 1.02649 1.02648
1.02643 1.02644 1.02649 1.02649 1.02643 1.02643 1.02649 1.02649 1.02643 1.02643
1.02648 1.02648 1.02643 1.02643 1.02648 1.02648 1.02643 1.02643 1.02648 1.02649
1.02644 1.02644 1.02649 1.02649 1.02644 1.02643 1.02648 1.02648 1.02643 1.02643
1.02648 1.02648 1.02643 1.02643 1.02648 1.02648 1.02643 1.02643 1.02648 1.02648
1.02643 1.02642 1.02647 1.02648 1.02643 1.02643 1.02648 1.02648 1.02643 1.02644
1.02648 1.02648 1.02644 1.02643 1.02648 1.02648 1.02643 1.02643 1.02648 1.02648
1.02643 1.02643 1.02648 1.02648 1.02643 1.02642 1.02647 1.02647 1.02642 1.02642
1.02647 1.02647 1.02642 1.02642 1.02647 1.02647 1.02643 1.02643 1.02648 1.02648
1.02643 1.02642 1.02647 1.02647 1.02642 1.02642 1.02647 1.02647 1.02642 1.02642
1.02647 1.02647 1.02642 1.02641 1.02646 1.02646 1.02641 1.02641 1.02646 1.02646
1.02641 1.02641 1.02646 1.02646 1.02642 1.02642 1.02647 1.02646 1.02642 1.02641
1.02646 1.02646 1.02641 1.02641 1.02646 1.02646 1.02641 1.02642 1.02646 1.02646
1.02641 1.0264 1.02644 1.02644 1.0264 1.0264 1.02644 1.02644 1.0264 1.0264
1.02645 1.02645 1.0264 1.02641 1.02645 1.02645 1.02641 1.0264 1.02645 1.02644
1.0264 1.0264 1.02644 1.02644 1.0264 1.0264 1.02644 1.02644 1.0264 1.02638
1.02642 1.02642 1.02638 1.02638 1.02642 1.02642 1.02638 1.02638 1.02642 1.02643
1.02638 1.02639 1.02643 1.02643 1.02639 1.02638 1.02642 1.02642 1.02638 1.02638
1.02642 1.02642 1.02638 1.02638 1.02642 1.02642 1.02638 1.02635 1.02639 1.02639
1.02635 1.02635 1.02638 1.02638 1.02635 1.02635 1.02639 1.02639 1.02636 1.02636
1.02639 1.02639 1.02636 1.02635 1.02639 1.02638 1.02635 1.02635 1.02639 1.02639
1.02635 1.02635 1.02638 1.02638 1.02635 1.02631 1.02634 1.02634 1.02631 1.02631
1.02634 1.02634 1.02631 1.02631 1.02634 1.02634 1.02631 1.02632 1.02635 1.02635
1.02632 1.02631 1.02634 1.02634 1.02631 1.02631 1.02634 1.02634 1.02631 1.02631
1.02633 1.02634 1.02631 1.02624 1.02626 1.02626 1.02624 1.02624 1.02626 1.02627
1.02625 1.02625 1.02627 1.02627 1.02625 1.02626 1.02628 1.02628 1.02626 1.02625
1.02627 1.02626 1.02625 1.02625 1.02627 1.02627 1.02624 1.02625 1.02626 1.02626
1.02624 1.02614 1.02615 1.02615 1.02615 1.02614 1.02615 1.02615 1.02615 1.02615
1.02616 1.02616 1.02615 1.02616 1.02617 1.02617 1.02616 1.02615 1.02616 1.02615
1.02615 1.02615 1.02616 1.02616 1.02614 1.02615 1.02615 1.02615 1.02614 
YCH3OHfuel 1 840 float
0.898211 0.898908 0.898845 0.89864 0.898464 0.898797 0.898799 0.898787 0.898624 0.89878 0.89875
0.898633 0.898756 0.898817 0.898817 0.898753 0.898636 0.898751 0.898776 0.898622 0.898794
0.898804 0.898798 0.898465 0.898637 0.898843 0.89891 0.898211 0.898417 0.899062 0.899008
0.898805 0.898644 0.898966 0.898969 0.898947 0.898797 0.898952 0.898925 0.898807 0.898919
0.898987 0.898987 0.898916 0.89881 0.898926 0.898948 0.898795 0.898953 0.898974 0.898966
0.898645 0.898803 0.899006 0.899063 0.898417 0.898625 0.899205 0.899158 0.898964 0.898823
0.899123 0.899127 0.899099 0.898965 0.899112 0.899088 0.898975 0.899073 0.899143 0.899143
0.89907 0.898978 0.899089 0.899108 0.898963 0.899104 0.899131 0.899123 0.898825 0.898962
0.899157 0.899206 0.898624 0.898823 0.899334 0.899295 0.899112 0.898994 0.899265 0.89927
0.899238 0.899121 0.899256 0.899235 0.899131 0.899214 0.899284 0.899284 0.899212 0.899134
0.899236 0.899253 0.89912 0.899243 0.899273 0.899265 0.898996 0.89911 0.899293 0.899335
0.898823 0.899007 0.899449 0.899415 0.899248 0.899152 0.899391 0.899396 0.899363 0.899264
0.899384 0.899366 0.899272 0.899342 0.899408 0.899408 0.899339 0.899275 0.899367 0.899382
0.899262 0.899367 0.899399 0.899391 0.899153 0.899246 0.899414 0.89945 0.899007 0.899173
0.899548 0.89952 0.899369 0.899294 0.899502 0.899506 0.899472 0.89939 0.899496 0.89948
0.899397 0.899454 0.899516 0.899516 0.899452 0.8994 0.899481 0.899494 0.899388 0.899476
0.899508 0.899501 0.899295 0.899367 0.899519 0.89955 0.899173 0.899319 0.899634 0.89961
0.899475 0.899418 0.899596 0.899599 0.899567 0.899499 0.899591 0.899577 0.899505 0.899551
0.899607 0.899608 0.899549 0.899508 0.899579 0.89959 0.899498 0.89957 0.899601 0.899595
0.899419 0.899474 0.899609 0.899636 0.89932 0.899445 0.899706 0.899685 0.899568 0.899526
0.899675 0.899678 0.899648 0.899592 0.899672 0.89966 0.899597 0.899634 0.899685 0.899685
0.899632 0.8996 0.899661 0.899671 0.899592 0.89965 0.899679 0.899675 0.899525 0.899566
0.899685 0.899708 0.899446 0.899552 0.899766 0.899749 0.899647 0.899617 0.899742 0.899745
0.899716 0.899671 0.89974 0.899729 0.899674 0.899704 0.89975 0.89975 0.899703 0.899678
0.899731 0.899738 0.89967 0.899718 0.899745 0.899741 0.899616 0.899646 0.899749 0.899768
0.899553 0.899641 0.899816 0.899802 0.899715 0.899693 0.899798 0.899799 0.899773 0.899737
0.899796 0.899787 0.89974 0.899762 0.899803 0.899804 0.899761 0.899743 0.899788 0.899795