# vtk DataFile Version 2.0
fuel_to_electrolyte
ASCII
DATASET POLYDATA
POINTS 1035 float
0.0035407 0 0 0.0035407 0 0.001 0.0035407 0.0005 0.001 0.0035407 0.0005
0 0.0035407 0.001 0.001 0.0035407 0.001 0 0.0035407 0.0015 0.001
0.0035407 0.0015 0 0.0035407 0.002 0.001 0.0035407 0.002 0 0.0035407
0.0025 0.001 0.0035407 0.0025 0 0.0035407 0.003 0.001 0.0035407 0.003
0 0.0035407 0.0035 0.001 0.0035407 0.0035 0 0.0035407 0.004 0.001
0.0035407 0.004 0 0.0035407 0.0045 0.001 0.0035407 0.0045 0 0.0035407
0.005 0.001 0.0035407 0.005 0 0.0035407 0.0055 0.001 0.0035407 0.0055
0 0.0035407 0.006 0.001 0.0035407 0.006 0 0.0035407 0.0065 0.001
0.0035407 0.0065 0 0.0035407 0.007 0.001 0.0035407 0.007 0 0.0035407
0.0075 0.001 0.0035407 0.0075 0 0.0035407 0.008 0.001 0.0035407 0.008
0 0.0035407 0.0085 0.001 0.0035407 0.0085 0 0.0035407 0.009 0.001
0.0035407 0.009 0 0.0035407 0.0095 0.001 0.0035407 0.0095 0 0.0035407
0.01 0.001 0.0035407 0.01 0 0.0035407 0.0105 0.001 0.0035407 0.0105
0 0.0035407 0.011 0.001 0.0035407 0.011 0 0.0035407 0.0115 0.001
0.0035407 0.0115 0 0.0035407 0.012 0.001 0.0035407 0.012 0 0.0035407
0.0125 0.001 0.0035407 0.0125 0 0.0035407 0.013 0.001 0.0035407 0.013
0 0.0035407 0.0135 0.001 0.0035407 0.0135 0 0.0035407 0.014 0.001
0.0035407 0.014 0 0.0035407 0.0145 0.001 0.0035407 0.0145 0 0.0035407
0.015 0.001 0.0035407 0.015 0 0.0035407 0.0155 0.001 0.0035407 0.0155
0 0.0035407 0.016 0.001 0.0035407 0.016 0 0.0035407 0.0165 0.001
0.0035407 0.0165 0 0.0035407 0.017 0.001 0.0035407 0.017 0 0.0035407
0.0175 0.001 0.0035407 0.0175 0 0.0035407 0.018 0.001 0.0035407 0.018
0 0.0035407 0.0185 0.001 0.0035407 0.0185 0 0.0035407 0.019 0.001
0.0035407 0.019 0 0.0035407 0.0195 0.001 0.0035407 0.0195 0 0.0035407
0.02 0.001 0.0035407 0.02 0 0.0035407 0.0205 0.001 0.0035407 0.0205
0 0.0035407 0.021 0.001 0.0035407 0.021 0 0.0035407 0.0215 0.001
0.0035407 0.0215 0 0.0035407 0.022 0.001 0.0035407 0.022 0 0.0035407
0 0.002 0.0035407 0.0005 0.002 0.0035407 0.001 0.002 0.0035407 0.0015
0.002 0.0035407 0.002 0.002 0.0035407 0.0025 0.002 0.0035407 0.003 0.002
0.0035407 0.0035 0.002 0.0035407 0.004 0.002 0.0035407 0.0045 0.002 0.0035407
0.005 0.002 0.0035407 0.0055 0.002 0.0035407 0.006 0.002 0.0035407 0.0065
0.002 0.0035407 0.007 0.002 0.0035407 0.0075 0.002 0.0035407 0.008 0.002
0.0035407 0.0085 0.002 0.0035407 0.009 0.002 0.0035407 0.0095 0.002 0.0035407
0.01 0.002 0.0035407 0.0105 0.002 0.0035407 0.011 0.002 0.0035407 0.0115
0.002 0.0035407 0.012 0.002 0.0035407 0.0125 0.002 0.0035407 0.013 0.002
0.0035407 0.0135 0.002 0.0035407 0.014 0.002 0.0035407 0.0145 0.002 0.0035407
0.015 0.002 0.0035407 0.0155 0.002 0.0035407 0.016 0.002 0.0035407 0.0165
0.002 0.0035407 0.017 0.002 0.0035407 0.0175 0.002 0.0035407 0.018 0.002
0.0035407 0.0185 0.002 0.0035407 0.019 0.002 0.0035407 0.0195 0.002 0.0035407
0.02 0.002 0.0035407 0.0205 0.002 0.0035407 0.021 0.002 0.0035407 0.0215
0.002 0.0035407 0.022 0.002 0.0035407 0 0.003 0.0035407 0.0005 0.003
0.0035407 0.001 0.003 0.0035407 0.0015 0.003 0.0035407 0.002 0.003 0.0035407
0.0025 0.003 0.0035407 0.003 0.003 0.0035407 0.0035 0.003 0.0035407 0.004
0.003 0.0035407 0.0045 0.003 0.0035407 0.005 0.003 0.0035407 0.0055 0.003
0.0035407 0.006 0.003 0.0035407 0.0065 0.003 0.0035407 0.007 0.003 0.0035407
0.0075 0.003 0.0035407 0.008 0.003 0.0035407 0.0085 0.003 0.0035407 0.009
0.003 0.0035407 0.0095 0.003 0.0035407 0.01 0.003 0.0035407 0.0105 0.003
0.0035407 0.011 0.003 0.0035407 0.0115 0.003 0.0035407 0.012 0.003 0.0035407
0.0125 0.003 0.0035407 0.013 0.003 0.0035407 0.0135 0.003 0.0035407 0.014
0.003 0.0035407 0.0145 0.003 0.0035407 0.015 0.003 0.0035407 0.0155 0.003
0.0035407 0.016 0.003 0.0035407 0.0165 0.003 0.0035407 0.017 0.003 0.0035407
0.0175 0.003 0.0035407 0.018 0.003 0.0035407 0.0185 0.003 0.0035407 0.019
0.003 0.0035407 0.0195 0.003 0.0035407 0.02 0.003 0.0035407 0.0205 0.003
0.0035407 0.021 0.003 0.0035407 0.0215 0.003 0.0035407 0.022 0.003 0.0035407
0 0.004 0.0035407 0.0005 0.004 0.0035407 0.001 0.004 0.0035407 0.0015
0.004 0.0035407 0.002 0.004 0.0035407 0.0025 0.004 0.0035407 0.003 0.004
0.0035407 0.0035 0.004 0.0035407 0.004 0.004 0.0035407 0.0045 0.004 0.0035407
0.005 0.004 0.0035407 0.0055 0.004 0.0035407 0.006 0.004 0.0035407 0.0065
0.004 0.0035407 0.007 0.004 0.0035407 0.0075 0.004 0.0035407 0.008 0.004
0.0035407 0.0085 0.004 0.0035407 0.009 0.004 0.0035407 0.0095 0.004 0.0035407
0.01 0.004 0.0035407 0.0105 0.004 0.0035407 0.011 0.004 0.0035407 0.0115
0.004 0.0035407 0.012 0.004 0.0035407 0.0125 0.004 0.0035407 0.013 0.004
0.0035407 0.0135 0.004 0.0035407 0.014 0.004 0.0035407 0.0145 0.004 0.0035407
0.015 0.004 0.0035407 0.0155 0.004 0.0035407 0.016 0.004 0.0035407 0.0165
0.004 0.0035407 0.017 0.004 0.0035407 0.0175 0.004 0.0035407 0.018 0.004
0.0035407 0.0185 0.004 0.0035407 0.019 0.004 0.0035407 0.0195 0.004 0.0035407
0.02 0.004 0.0035407 0.0205 0.004 0.0035407 0.021 0.004 0.0035407 0.0215
0.004 0.0035407 0.022 0.004 0.0035407 0 0.005 0.0035407 0.0005 0.005
0.0035407 0.001 0.005 0.0035407 0.0015 0.005 0.0035407 0.002 0.005 0.0035407
0.0025 0.005 0.0035407 0.003 0.005 0.0035407 0.0035 0.005 0.0035407 0.004
0.005 0.0035407 0.0045 0.005 0.0035407 0.005 0.005 0.0035407 0.0055 0.005
0.0035407 0.006 0.005 0.0035407 0.0065 0.005 0.0035407 0.007 0.005 0.0035407
0.0075 0.005 0.0035407 0.008 0.005 0.0035407 0.0085 0.005 0.0035407 0.009
0.005 0.0035407 0.0095 0.005 0.0035407 0.01 0.005 0.0035407 0.0105 0.005
0.0035407 0.011 0.005 0.0035407 0.0115 0.005 0.0035407 0.012 0.005 0.0035407
0.0125 0.005 0.0035407 0.013 0.005 0.0035407 0.0135 0.005 0.0035407 0.014
0.005 0.0035407 0.0145 0.005 0.0035407 0.015 0.005 0.0035407 0.0155 0.005
0.0035407 0.016 0.005 0.0035407 0.0165 0.005 0.0035407 0.017 0.005 0.0035407
0.0175 0.005 0.0035407 0.018 0.005 0.0035407 0.0185 0.005 0.0035407 0.019
0.005 0.0035407 0.0195 0.005 0.0035407 0.02 0.005 0.0035407 0.0205 0.005
0.0035407 0.021 0.005 0.0035407 0.0215 0.005 0.0035407 0.022 0.005 0.0035407
0 0.006 0.0035407 0.0005 0.006 0.0035407 0.001 0.006 0.0035407 0.0015
0.006 0.0035407 0.002 0.006 0.0035407 0.0025 0.006 0.0035407 0.003 0.006
0.0035407 0.0035 0.006 0.0035407 0.004 0.006 0.0035407 0.0045 0.006 0.0035407
0.005 0.006 0.0035407 0.0055 0.006 0.0035407 0.006 0.006 0.0035407 0.0065
0.006 0.0035407 0.007 0.006 0.0035407 0.0075 0.006 0.0035407 0.008 0.006
0.0035407 0.0085 0.006 0.0035407 0.009 0.006 0.0035407 0.0095 0.006 0.0035407
0.01 0.006 0.0035407 0.0105 0.006 0.0035407 0.011 0.006 0.0035407 0.0115
0.006 0.0035407 0.012 0.006 0.0035407 0.0125 0.006 0.0035407 0.013 0.006
0.0035407 0.0135 0.006 0.0035407 0.014 0.006 0.0035407 0.0145 0.006 0.0035407
0.015 0.006 0.0035407 0.0155 0.006 0.0035407 0.016 0.006 0.0035407 0.0165
0.006 0.0035407 0.017 0.006 0.0035407 0.0175 0.006 0.0035407 0.018 0.006
0.0035407 0.0185 0.006 0.0035407 0.019 0.006 0.0035407 0.0195 0.006 0.0035407
0.02 0.006 0.0035407 0.0205 0.006 0.0035407 0.021 0.006 0.0035407 0.0215
0.006 0.0035407 0.022 0.006 0.0035407 0 0.007 0.0035407 0.0005 0.007
0.0035407 0.001 0.007 0.0035407 0.0015 0.007 0.0035407 0.002 0.007 0.0035407
0.0025 0.007 0.0035407 0.003 0.007 0.0035407 0.0035 0.007 0.0035407 0.004
0.007 0.0035407 0.0045 0.007 0.0035407 0.005 0.007 0.0035407 0.0055 0.007
0.0035407 0.006 0.007 0.0035407 0.0065 0.007 0.0035407 0.007 0.007 0.0035407
0.0075 0.007 0.0035407 0.008 0.007 0.0035407 0.0085 0.007 0.0035407 0.009
0.007 0.0035407 0.0095 0.007 0.0035407 0.01 0.007 0.0035407 0.0105 0.007
0.0035407 0.011 0.007 0.0035407 0.0115 0.007 0.0035407 0.012 0.007 0.0035407
0.0125 0.007 0.0035407 0.013 0.007 0.0035407 0.0135 0.007 0.0035407 0.014
0.007 0.0035407 0.0145 0.007 0.0035407 0.015 0.007 0.0035407 0.0155 0.007
0.0035407 0.016 0.007 0.0035407 0.0165 0.007 0.0035407 0.017 0.007 0.0035407
0.0175 0.007 0.0035407 0.018 0.007 0.0035407 0.0185 0.007 0.0035407 0.019
0.007 0.0035407 0.0195 0.007 0.0035407 0.02 0.007 0.0035407 0.0205 0.007
0.0035407 0.021 0.007 0.0035407 0.0215 0.007 0.0035407 0.022 0.007 0.0035407
0 0.008 0.0035407 0.0005 0.008 0.0035407 0.001 0.008 0.0035407 0.0015
0.008 0.0035407 0.002 0.008 0.0035407 0.0025 0.008 0.0035407 0.003 0.008
0.0035407 0.0035 0.008 0.0035407 0.004 0.008 0.0035407 0.0045 0.008 0.0035407
0.005 0.008 0.0035407 0.0055 0.008 0.0035407 0.006 0.008 0.0035407 0.0065
0.008 0.0035407 0.007 0.008 0.0035407 0.0075 0.008 0.0035407 0.008 0.008
0.0035407 0.0085 0.008 0.0035407 0.009 0.008 0.0035407 0.0095 0.008 0.0035407
0.01 0.008 0.0035407 0.0105 0.008 0.0035407 0.011 0.008 0.0035407 0.0115
0.008 0.0035407 0.012 0.008 0.0035407 0.0125 0.008 0.0035407 0.013 0.008
0.0035407 0.0135 0.008 0.0035407 0.014 0.008 0.0035407 0.0145 0.008 0.0035407
0.015 0.008 0.0035407 0.0155 0.008 0.0035407 0.016 0.008 0.0035407 0.0165
0.008 0.0035407 0.017 0.008 0.0035407 0.0175 0.008 0.0035407 0.018 0.008
0.0035407 0.0185 0.008 0.0035407 0.019 0.008 0.0035407 0.0195 0.008 0.0035407
0.02 0.008 0.0035407 0.0205 0.008 0.0035407 0.021 0.008 0.0035407 0.0215
0.008 0.0035407 0.022 0.008 0.0035407 0 0.009 0.0035407 0.0005 0.009
0.0035407 0.001 0.009 0.0035407 0.0015 0.009 0.0035407 0.002 0.009 0.0035407
0.0025 0.009 0.0035407 0.003 0.009 0.0035407 0.0035 0.009 0.0035407 0.004
0.009 0.0035407 0.0045 0.009 0.0035407 0.005 0.009 0.0035407 0.0055 0.009
0.0035407 0.006 0.009 0.0035407 0.0065 0.009 0.0035407 0.007 0.009 0.0035407
0.0075 0.009 0.0035407 0.008 0.009 0.0035407 0.0085 0.009 0.0035407 0.009
0.009 0.0035407 0.0095 0.009 0.0035407 0.01 0.009 0.0035407 0.0105 0.009
0.0035407 0.011 0.009 0.0035407 0.0115 0.009 0.0035407 0.012 0.009 0.0035407
0.0125 0.009 0.0035407 0.013 0.009 0.0035407 0.0135 0.009 0.0035407 0.014
0.009 0.0035407 0.0145 0.009 0.0035407 0.015 0.009 0.0035407 0.0155 0.009
0.0035407 0.016 0.009 0.0035407 0.0165 0.009 0.0035407 0.017 0.009 0.0035407
0.0175 0.009 0.0035407 0.018 0.009 0.0035407 0.0185 0.009 0.0035407 0.019
0.009 0.0035407 0.0195 0.009 0.0035407 0.02 0.009 0.0035407 0.0205 0.009
0.0035407 0.021 0.009 0.0035407 0.0215 0.009 0.0035407 0.022 0.009 0.0035407
[...]
CELL_DATA 968
FIELD attributes 16
patchID 1 968 float
4 4 4 4 4 4 4 4 4 4 4
4 4 4 4 4 4 4 4 4 4
4 4 4 4 4 4 4 4 4 4
4 4 4 4 4 4 4 4 4 4
4 4 4 4 4 4 4 4 4 4
4 4 4 4 4 4 4 4 4 4
4 4 4 4 4 4 4 4 4 4
4 4 4 4 4 4 4 4 4 4
4 4 4 4 4 4 4 4 4 4
4 4 4 4 4 4 4 4 4 4
4 4 4 4 4 4 4 4 4 4
4 4 4 4 4 4 4 4 4 4
4 4 4 4 4 4 4 4 4 4
4 4 4 4 4 4 4 4 4 4
4 4 4 4 4 4 4 4 4 4
4 4 4 4 4 4 4 4 4 4
4 4 4 4 4 4 4 4 4 4
4 4 4 4 4 4 4 4 4 4
4 4 4 4 4 4 4 4 4 4
4 4 4 4 4 4 4 4 4 4
4 4 4 4 4 4 4 4 4 4
4 4 4 4 4 4 4 4 4 4
4 4 4 4 4 4 4 4 4 4
4 4 4 4 4 4 4 4 4 4
4 4 4 4 4 4 4 4 4 4
4 4 4 4 4 4 4 4 4 4
4 4 4 4 4 4 4 4 4 4
4 4 4 4 4 4 4 4 4 4
4 4 4 4 4 4 4 4 4 4
4 4 4 4 4 4 4 4 4 4
4 4 4 4 4 4 4 4 4 4
4 4 4 4 4 4 4 4 4 4
4 4 4 4 4 4 4 4 4 4
4 4 4 4 4 4 4 4 4 4
4 4 4 4 4 4 4 4 4 4
4 4 4 4 4 4 4 4 4 4
4 4 4 4 4 4 4 4 4 4
4 4 4 4 4 4 4 4 4 4
4 4 4 4 4 4 4 4 4 4
4 4 4 4 4 4 4 4 4 4
4 4 4 4 4 4 4 4 4 4
4 4 4 4 4 4 4 4 4 4
4 4 4 4 4 4 4 4 4 4
4 4 4 4 4 4 4 4 4 4
4 4 4 4 4 4 4 4 4 4
4 4 4 4 4 4 4 4 4 4
4 4 4 4 4 4 4 4 4 4
4 4 4 4 4 4 4 4 4 4
4 4 4 4 4 4 4 4 4 4
4 4 4 4 4 4 4 4 4 4
4 4 4 4 4 4 4 4 4 4
4 4 4 4 4 4 4 4 4 4
4 4 4 4 4 4 4 4 4 4
4 4 4 4 4 4 4 4 4 4
4 4 4 4 4 4 4 4 4 4
4 4 4 4 4 4 4 4 4 4
4 4 4 4 4 4 4 4 4 4
4 4 4 4 4 4 4 4 4 4
4 4 4 4 4 4 4 4 4 4
4 4 4 4 4 4 4 4 4 4
4 4 4 4 4 4 4 4 4 4
4 4 4 4 4 4 4 4 4 4
4 4 4 4 4 4 4 4 4 4
4 4 4 4 4 4 4 4 4 4
4 4 4 4 4 4 4 4 4 4
4 4 4 4 4 4 4 4 4 4
4 4 4 4 4 4 4 4 4 4
4 4 4 4 4 4 4 4 4 4
4 4 4 4 4 4 4 4 4 4
4 4 4 4 4 4 4 4 4 4
4 4 4 4 4 4 4 4 4 4
4 4 4 4 4 4 4 4 4 4
4 4 4 4 4 4 4 4 4 4
4 4 4 4 4 4 4 4 4 4
4 4 4 4 4 4 4 4 4 4
4 4 4 4 4 4 4 4 4 4
4 4 4 4 4 4 4 4 4 4
4 4 4 4 4 4 4 4 4 4
4 4 4 4 4 4 4 4 4 4
4 4 4 4 4 4 4 4 4 4
4 4 4 4 4 4 4 4 4 4
4 4 4 4 4 4 4 4 4 4
4 4 4 4 4 4 4 4 4 4
4 4 4 4 4 4 4 4 4 4
4 4 4 4 4 4 4 4 4 4
4 4 4 4 4 4 4 4 4 4
4 4 4 4 4 4 4 4 4 4
4 4 4 4 4 4 4 4 4 4
4 4 4 4 4 4 4 4 4 4
4 4 4 4 4 4 4 4 4 4
4 4 4 4 4 4 4 4 4 4
4 4 4 4 4 4 4 4 4 4
4 4 4 4 4 4 4 4 4 4
4 4 4 4 4 4 4 4 4 4
4 4 4 4 4 4 4 4 4 4
4 4 4 4 4 4 4 4 4 4
4 4 4 4 4 4 4 
diffH2Ofuel 1 968 float
0 0 0 0 0 0 0 0 0 0 0
0 0 0 0 0 0 0 0 0 0
0 0 0 0 0 0 0 0 0 0
0 0 0 0 0 0 0 0 0 0
0 0 0 0 0 0 0 0 0 0
0 0 0 0 0 0 0 0 0 0
0 0 0 0 0 0 0 0 0 0
0 0 0 0 0 0 0 0 0 0
0 0 0 0 0 0 0 0 0 0
0 0 0 0 0 0 0 0 0 0
0 0 0 0 0 0 0 0 0 0
0 0 0 0 0 0 0 0 0 0
0 0 0 0 0 0 0 0 0 0
0 0 0 0 0 0 0 0 0 0
0 0 0 0 0 0 0 0 0 0
0 0 0 0 0 0 0 0 0 0
0 0 0 0 0 0 0 0 0 0
0 0 0 0 0 0 0 0 0 0
0 0 0 0 0 0 0 0 0 0
0 0 0 0 0 0 0 0 0 0
0 0 0 0 0 0 0 0 0 0
0 0 0 0 0 0 0 0 0 0
0 0 0 0 0 0 0 0 0 0
0 0 0 0 0 0 0 0 0 0
0 0 0 0 0 0 0 0 0 0
0 0 0 0 0 0 0 0 0 0
0 0 0 0 0 0 0 0 0 0
0 0 0 0 0 0 0 0 0 0
0 0 0 0 0 0 0 0 0 0
0 0 0 0 0 0 0 0 0 0
0 0 0 0 0 0 0 0 0 0
0 0 0 0 0 0 0 0 0 0
0 0 0 0 0 0 0 0 0 0
0 0 0 0 0 0 0 0 0 0
0 0 0 0 0 0 0 0 0 0
0 0 0 0 0 0 0 0 0 0
0 0 0 0 0 0 0 0 0 0
0 0 0 0 0 0 0 0 0 0
0 0 0 0 0 0 0 0 0 0
0 0 0 0 0 0 0 0 0 0
0 0 0 0 0 0 0 0 0 0
0 0 0 0 0 0 0 0 0 0
0 0 0 0 0 0 0 0 0 0
0 0 0 0 0 0 0 0 0 0
0 0 0 0 0 0 0 0 0 0
0 0 0 0 0 0 0 0 0 0
0 0 0 0 0 0 0 0 0 0
0 0 0 0 0 0 0 0 0 0
0 0 0 0 0 0 0 0 0 0
0 0 0 0 0 0 0 0 0 0
0 0 0 0 0 0 0 0 0 0
0 0 0 0 0 0 0 0 0 0
0 0 0 0 0 0 0 0 0 0
0 0 0 0 0 0 0 0 0 0
0 0 0 0 0 0 0 0 0 0
0 0 0 0 0 0 0 0 0 0
0 0 0 0 0 0 0 0 0 0
0 0 0 0 0 0 0 0 0 0
0 0 0 0 0 0 0 0 0 0
0 0 0 0 0 0 0 0 0 0
0 0 0 0 0 0 0 0 0 0
0 0 0 0 0 0 0 0 0 0
0 0 0 0 0 0 0 0 0 0
0 0 0 0 0 0 0 0 0 0
0 0 0 0 0 0 0 0 0 0
0 0 0 0 0 0 0 0 0 0
0 0 0 0 0 0 0 0 0 0
0 0 0 0 0 0 0 0 0 0
0 0 0 0 0 0 0 0 0 0
0 0 0 0 0 0 0 0 0 0
0 0 0 0 0 0 0 0 0 0
0 0 0 0 0 0 0 0 0 0
0 0 0 0 0 0 0 0 0 0
0 0 0 0 0 0 0 0 0 0
0 0 0 0 0 0 0 0 0 0
0 0 0 0 0 0 0 0 0 0
0 0 0 0 0 0 0 0 0 0
0 0 0 0 0 0 0 0 0 0
0 0 0 0 0 0 0 0 0 0
0 0 0 0 0 0 0 0 0 0
0 0 0 0 0 0 0 0 0 0
0 0 0 0 0 0 0 0 0 0
0 0 0 0 0 0 0 0 0 0
0 0 0 0 0 0 0 0 0 0
0 0 0 0 0 0 0 0 0 0
0 0 0 0 0 0 0 0 0 0
0 0 0 0 0 0 0 0 0 0
0 0 0 0 0 0 0 0 0 0
0 0 0 0 0 0 0 0 0 0
0 0 0 0 0 0 0 0 0 0
0 0 0 0 0 0 0 0 0 0
0 0 0 0 0 0 0 0 0 0
0 0 0 0 0 0 0 0 0 0
0 0 0 0 0 0 0 0 0 0
0 0 0 0 0 0 0 0 0 0
0 0 0 0 0 0 0 0 0 0
0 0 0 0 0 0 0 
XCH3OHfuel 1 968 float
0.833041 0.832879 0.832669 0.832717 0.832917 0.832856 0.832988 0.833024 0.832895 0.833084 0.833296
0.832965 0.833108 0.833127 0.833003 0.833312 0.83332 0.833014 0.833137 0.833142 0.833027
0.833343 0.83334 0.833025 0.833143 0.833137 0.833015 0.833321 0.833315 0.833005 0.833128
0.833107 0.832964 0.833295 0.833084 0.832896 0.833025 0.832989 0.832857 0.832919 0.83272
0.832672 0.832881 0.833043 0.833256 0.833597 0.833848 0.833905 0.83382 0.833787 0.833425
0.833654 0.833929 0.833915 0.83391 0.833917 0.833591 0.833661 0.833949 0.833928 0.833924
0.83394 0.833633 0.833649 0.833946 0.833928 0.833927 0.833946 0.833648 0.833633 0.83394
0.833925 0.833928 0.83395 0.833662 0.833591 0.833917 0.83391 0.833915 0.833929 0.833654
0.833425 0.833787 0.83382 0.833906 0.833849 0.833597 0.833256 0.833417 0.833678 0.833904
0.833843 0.833643 0.833661 0.833415 0.833616 0.833877 0.833774 0.83374 0.83383 0.833513
0.833599 0.83388 0.833763 0.833751 0.833861 0.833559 0.833581 0.833872 0.833757 0.833757
0.833872 0.833581 0.833559 0.833861 0.833751 0.833764 0.833881 0.833601 0.833512 0.833829
0.83374 0.833774 0.833877 0.833617 0.833415 0.83366 0.833643 0.833843 0.833905 0.833678
0.833417 0.833417 0.833628 0.833861 0.83377 0.833498 0.833533 0.833304 0.833524 0.833786
0.83364 0.833592 0.833717 0.833412 0.8335 0.833777 0.833618 0.833605 0.833753 0.833456
0.83348 0.833766 0.83361 0.83361 0.833765 0.83348 0.833456 0.833752 0.833604 0.833618
0.833778 0.833501 0.833411 0.833716 0.833592 0.83364 0.833786 0.833524 0.833305 0.833533
0.833498 0.833769 0.833862 0.833629 0.833417 0.833299 0.833546 0.833773 0.833666 0.833364
0.833381 0.833226 0.833436 0.833677 0.833514 0.833452 0.833574 0.833332 0.833405 0.833656
0.833487 0.833471 0.833619 0.833373 0.833393 0.833637 0.833478 0.833477 0.833637 0.833392
0.833372 0.833619 0.83347 0.833487 0.833656 0.833406 0.833331 0.833573 0.833452 0.833514
0.833677 0.833436 0.833226 0.833381 0.833363 0.833664 0.833773 0.833546 0.833299 0.833193
0.833463 0.833677 0.833569 0.83325 0.833257 0.833115 0.833347 0.833576 0.833402 0.833323
0.833459 0.833229 0.833308 0.833549 0.833367 0.833348 0.833508 0.833272 0.833295 0.833529
0.833356 0.833356 0.833529 0.833294 0.833272 0.833508 0.833347 0.833368 0.83355 0.833308
0.833228 0.833457 0.833323 0.833402 0.833577 0.833348 0.833116 0.833258 0.83325 0.83357
0.833678 0.833465 0.833195 0.833092 0.833385 0.833577 0.83348 0.833153 0.833141 0.833011
0.833266 0.833477 0.833302 0.833206 0.833352 0.833126 0.833218 0.833445 0.833257 0.833233
0.833402 0.833174 0.833198 0.833424 0.833243 0.833243 0.833424 0.833198 0.833174 0.833403
0.833234 0.833258 0.833446 0.833218 0.833125 0.833351 0.833206 0.833302 0.833478 0.833266
0.833012 0.833142 0.833152 0.83348 0.833578 0.833386 0.833093 0.832988 0.833303 0.83348
0.833392 0.833066 0.833036 0.832905 0.833185 0.833384 0.833207 0.833099 0.833254 0.833022
0.83313 0.833349 0.833157 0.833131 0.833307 0.833077 0.833104 0.833331 0.833142 0.833142
0.833331 0.833104 0.833076 0.833307 0.833131 0.833157 0.83335 0.833131 0.833022 0.833253
0.833098 0.833207 0.833384 0.833186 0.832906 0.833036 0.833065 0.833392 0.83348 0.833304
0.832989 0.832883 0.833219 0.833389 0.833309 0.832987 0.832944 0.832799 0.833109 0.833295
0.833122 0.833001 0.833162 0.832922 0.83304 0.833259 0.833063 0.833036 0.833218 0.832977
0.833007 0.83324 0.833046 0.833046 0.833241 0.833007 0.832977 0.833217 0.833035 0.833064
0.83326 0.833041 0.832921 0.833161 0.833001 0.833121 0.833295 0.83311 0.832801 0.832943
0.832986 0.833309 0.833389 0.83322 0.832883 0.832781 0.833131 0.833301 0.833229 0.832913
0.832861 0.832698 0.833025 0.833207 0.833039 0.832909 0.83307 0.832824 0.832948 0.833174
0.832977 0.832947 0.833133 0.832882 0.832912 0.833156 0.832959 0.832959 0.833156 0.832912
0.832881 0.833133 0.832947 0.832978 0.833175 0.83295 0.832824 0.833069 0.83291 0.833039
0.833206 0.833025 0.832699 0.83286 0.832911 0.833226 0.8333 0.83313 0.832779 0.832678
0.833041 0.833213 0.833148 0.832842 0.832789 0.832609 0.832934 0.833121 0.832963 0.832827
0.832986 0.83273 0.832859 0.833095 0.8329 0.832864 0.833051 0.832789 0.832819 0.833077
0.832879 0.832879 0.833078 0.832819 0.832789 0.83305 0.832864 0.8329 0.833096 0.832858
0.832728 0.832983 0.832826 0.832963 0.833122 0.832936 0.832609 0.832787 0.832842 0.833149
0.833215 0.833043 0.832681 0.832582 0.832952 0.833129 0.833075 0.832781 0.832715 0.832523
0.832845 0.833039 0.832891 0.832752 0.83291 0.832637 0.832766 0.833018 0.832826 0.832785
0.83297 0.832696 0.832727 0.833003 0.832803 0.832804 0.833004 0.832727 0.832696 0.83297
0.832786 0.832827 0.833019 0.832766 0.832637 0.832909 0.832751 0.832891 0.83304 0.832847
0.832523 0.832713 0.83278 0.833075 0.83313 0.832952 0.832583 0.832485 0.832853 0.83304
0.833002 0.832726 0.832636 0.832435 0.832749 0.832954 0.832815 0.83268 0.832841 0.832551
0.832672 0.832939 0.832755 0.832713 0.8329 0.832606 0.832639 0.832927 0.832734 0.832734
0.832929 0.832639 0.832606 0.832898 0.832713 0.832756 0.83294 0.832672 0.832551 0.832839
0.832679 0.832815 0.832955 0.832751 0.832434 0.832635 0.832725 0.833002 0.833041 0.832854
0.832485 0.832386 0.832747 0.832953 0.832933 0.832679 0.832563 0.832353 0.832645 0.83287
0.832742 0.832614 0.832776 0.832465 0.832576 0.832859 0.832685 0.832647 0.832835 0.83252
0.832547 0.832841 0.832663 0.832663 0.832843 0.832547 0.832519 0.832831 0.832645 0.832685
0.832859 0.832576 0.832464 0.832774 0.832614 0.832742 0.832872 0.832647 0.832352 0.832562
0.832678 0.832933 0.832953 0.832748 0.832387 0.832287 0.83263 0.832858 0.832861 0.83263
0.832497 0.832271 0.83254 0.832792 0.832671 0.832549 0.832705 0.832374 0.832481 0.832781
0.832616 0.832583 0.832774 0.832441 0.832455 0.832753 0.832595 0.832595 0.832755 0.832455
0.83244 0.832771 0.832583 0.832617 0.832782 0.832482 0.832375 0.832705 0.83255 0.832672
0.832794 0.832541 0.83227 0.832495 0.832628 0.832858 0.832857 0.832628 0.832285 0.832183
0.8325 0.832766 0.832788 0.832582 0.832439 0.832195 0.832439 0.83273 0.83261 0.832492
0.83263 0.83229 0.832385 0.832714 0.832554 0.832521 0.832714 0.832363 0.832362 0.832673
0.832529 0.832529 0.832676 0.832362 0.832361 0.832711 0.83252 0.832554 0.832715 0.832385
0.832289 0.832627 0.832491 0.832611 0.832731 0.832439 0.832195 0.832438 0.832581 0.832788
0.832767 0.832502 0.832184 0.83208 0.832367 0.832665 0.832709 0.832527 0.832382 0.832127
0.832339 0.832665 0.832551 0.832433 0.832555 0.832209 0.83229 0.832639 0.832491 0.832454
0.832647 0.832273 0.832269 0.83259 0.83246 0.832461 0.832593 0.832269 0.832272 0.832646
0.832454 0.832491 0.832641 0.832291 0.832209 0.832554 0.832433 0.832552 0.832666 0.83234
0.832127 0.832381 0.832526 0.832708 0.832666 0.832368 0.83208 0.831968 0.832213 0.832553
0.832626 0.832465 0.832325 0.832065 0.832231 0.832586 0.832489 0.832373 0.832483 0.832138
0.832186 0.832552 0.832423 0.832389 0.832578 0.83218 0.832174 0.832512 0.832392 0.832393
0.832515 0.832175 0.832178 0.832576 0.832388 0.832424 0.832555 0.832187 0.832138 0.832482
0.832372 0.83249 0.832588 0.832232 0.832064 0.832323 0.832464 0.832626 0.832554 0.832214
0.831968 0.831849 0.832063 0.832399 0.832514 0.832377 0.832237 0.832011 0.832129 0.832445
0.832393 0.832287 0.832395 0.832063 0.832091 0.832419 0.832327 0.832303 0.832462 0.83209
0.832081 0.832404 0.832299 0.8323 0.832406 0.832082 0.832088 0.832458 0.832301 0.832328
0.832421 0.832092 0.832065 0.832395 0.832287 0.832394 0.832447 0.832129 0.83201 0.832234
0.832376 0.832513 0.832399 0.832064 0.831849 0.831709 0.83187 0.832181 0.832361 0.832245
0.832104 0.831948 0.832004 0.83224 0.832258 0.832163 0.832253 0.831976 0.83198 0.832237
0.832197 0.832181 0.832284 0.83198 0.83197 0.83226 0.832176 0.832176 0.832262 0.831971
0.831979 0.832279 0.832179 0.832196 0.83224 0.831983 0.83198 0.832253 0.832166 0.83226
0.832243 0.832004 0.831948 0.832104 0.832242 0.83236 0.832181 0.831869 0.831707 0.831532
0.831646 0.831918 0.83218 0.83209 0.831951 0.831891 0.831895 0.831994 0.832081 0.832014
0.832096 0.8319 0.831878 0.832027 0.832034 0.832014 0.832055 0.831865 0.831877 0.832106
0.832025 0.832026 0.832108 0.831877 0.831863 0.83205 0.832012 0.832033 0.832029 0.831878
0.831902 0.832095 0.832015 0.832082 0.831997 0.831895 0.83189 0.831948 0.832088 0.832182
0.831921 0.831649 0.831533 0.831323 0.831355 0.831376 0.83179 0.831712 0.831631 0.831794
0.831751 0.831578 0.831682 0.831654 0.831715 0.831783 0.831741 0.831624 0.831645 0.831621
0.831618 0.831721 0.831711 0.831664 0.831652 0.831652 0.831662 0.831709 0.831722 0.83162
0.83162 0.831644 0.831626 0.831744 0.831789 0.83172 0.831657 0.831683 0.831579 0.83175
0.831792 0.831627 0.83171 0.831792 0.831378 0.831356 0.831323 
rho 1 968 float
1.02718 1.02723 1.02737 1.02741 1.02736 1.02735 1.02725 1.02723 1.02733 1.0273 1.02723
1.02731 1.0272 1.02719 1.02729 1.02722 1.02722 1.02729 1.02719 1.02719 1.02728
1.02721 1.02721 1.02728 1.02719 1.02719 1.02729 1.02722 1.02722 1.02729 1.02719
1.0272 1.02731 1.02723 1.0273 1.02733 1.02723 1.02725 1.02735 1.02736 1.02741
1.02737 1.02723 1.02718 1.02714 1.02698 1.02705 1.0271 1.02717 1.02716 1.02721
1.02711 1.02712 1.02718 1.02719 1.02714 1.02717 1.02714 1.02713 1.0272 1.0272
1.02714 1.02716 1.02715 1.02714 1.0272 1.0272 1.02714 1.02715 1.02716 1.02714
1.0272 1.0272 1.02713 1.02714 1.02717 1.02714 1.02719 1.02718 1.02712 1.02711
1.02721 1.02716 1.02717 1.0271 1.02705 1.02698 1.02714 1.02723 1.02712 1.02717
1.0272 1.02727 1.02725 1.0273 1.02721 1.0272 1.02724 1.02725 1.02722 1.02728
1.02724 1.0272 1.02725 1.02725 1.02721 1.02727 1.02726 1.02721 1.02725 1.02725
1.02721 1.02726 1.02727 1.02721 1.02725 1.02725 1.0272 1.02724 1.02728 1.02722
1.02725 1.02724 1.0272 1.02721 1.0273 1.02725 1.02727 1.0272 1.02717 1.02712
1.02723 1.02726 1.0272 1.02717 1.02721 1.0273 1.02726 1.02731 1.02722 1.02718
1.02725 1.02727 1.0272 1.02727 1.02724 1.02718 1.02726 1.02727 1.02719 1.02726
1.02725 1.02719 1.02726 1.02726 1.02719 1.02725 1.02726 1.02719 1.02727 1.02726
1.02718 1.02724 1.02727 1.0272 1.02727 1.02725 1.02718 1.02722 1.02731 1.02726
1.0273 1.02721 1.02717 1.0272 1.02726 1.02729 1.02722 1.02718 1.02722 1.02732
1.02729 1.02732 1.02724 1.02719 1.02727 1.02729 1.02722 1.02728 1.02725 1.0272
1.02728 1.02728 1.02721 1.02727 1.02726 1.0272 1.02728 1.02728 1.0272 1.02726
1.02727 1.02721 1.02728 1.02728 1.0272 1.02725 1.02728 1.02722 1.02729 1.02727
1.02719 1.02724 1.02732 1.02729 1.02732 1.02722 1.02718 1.02722 1.02729 1.02729
1.02721 1.02717 1.02722 1.02733 1.0273 1.02732 1.02723 1.02718 1.02727 1.02729
1.02722 1.02727 1.02724 1.02719 1.02728 1.02728 1.0272 1.02726 1.02725 1.0272
1.02728 1.02728 1.0272 1.02725 1.02726 1.0272 1.02728 1.02728 1.02719 1.02724
1.02727 1.02722 1.02729 1.02727 1.02718 1.02723 1.02732 1.0273 1.02733 1.02722
1.02717 1.0272 1.02729 1.02729 1.0272 1.02716 1.02721 1.02732 1.0273 1.02733
1.02723 1.02718 1.02727 1.0273 1.02722 1.02728 1.02725 1.02719 1.02728 1.02729
1.0272 1.02726 1.02725 1.02719 1.02728 1.02728 1.02719 1.02725 1.02726 1.0272
1.02728 1.02728 1.02719 1.02724 1.02728 1.02722 1.0273 1.02727 1.02718 1.02723
1.02733 1.0273 1.02732 1.02721 1.02716 1.02719 1.02729 1.02729 1.02718 1.02715
1.0272 1.02731 1.0273 1.02733 1.02723 1.02717 1.02726 1.0273 1.02722 1.02728
1.02724 1.02718 1.02727 1.02728 1.02719 1.02726 1.02725 1.02719 1.02728 1.02728
1.02719 1.02725 1.02726 1.02719 1.02728 1.02727 1.02718 1.02724 1.02728 1.02722
1.0273 1.02726 1.02717 1.02722 1.02733 1.0273 1.02731 1.0272 1.02715 1.02718
1.02729 1.0273 1.02718 1.02714 1.02718 1.0273 1.0273 1.02734 1.02722 1.02717
1.02725 1.02729 1.02721 1.02729 1.02724 1.02717 1.02727 1.02727 1.02719 1.02726
1.02725 1.02718 1.02727 1.02727 1.02718 1.02725 1.02726 1.02719 1.02727 1.02727
1.02717 1.02724 1.02729 1.02721 1.02729 1.02725 1.02717 1.02722 1.02734 1.0273
1.0273 1.02718 1.02714 1.02718 1.0273 1.0273 1.02717 1.02713 1.02717 1.02728
1.02729 1.02734 1.02722 1.02716 1.02724 1.02728 1.02721 1.02729 1.02724 1.02717
1.02726 1.02727 1.02718 1.02727 1.02726 1.02717 1.02726 1.02726 1.02717 1.02726
1.02727 1.02718 1.02727 1.02726 1.02717 1.02724 1.02729 1.02721 1.02728 1.02724
1.02716 1.02722 1.02734 1.02729 1.02728 1.02717 1.02713 1.02717 1.0273 1.02731
1.02717 1.02712 1.02716 1.02727 1.02728 1.02734 1.02722 1.02715 1.02723 1.02727
1.0272 1.02729 1.02724 1.02716 1.02725 1.02726 1.02717 1.02727 1.02726 1.02716
1.02725 1.02725 1.02716 1.02726 1.02727 1.02717 1.02726 1.02725 1.02716 1.02724
1.02729 1.0272 1.02727 1.02723 1.02715 1.02722 1.02734 1.02728 1.02727 1.02716
1.02712 1.02717 1.02731 1.02732 1.02717 1.02711 1.02714 1.02725 1.02727 1.02734
1.02722 1.02715 1.02721 1.02726 1.02719 1.0273 1.02725 1.02715 1.02723 1.02725
1.02717 1.02727 1.02726 1.02716 1.02724 1.02724 1.02716 1.02726 1.02727 1.02717
1.02725 1.02723 1.02715 1.02725 1.0273 1.02719 1.02726 1.02721 1.02715 1.02722
1.02734 1.02727 1.02725 1.02714 1.02711 1.02717 1.02731 1.02732 1.02717 1.02711
1.02713 1.02723 1.02726 1.02735 1.02722 1.02714 1.0272 1.02725 1.02718 1.0273
1.02725 1.02714 1.02722 1.02724 1.02716 1.02728 1.02726 1.02715 1.02723 1.02723
1.02715 1.02726 1.02728 1.02716 1.02724 1.02722 1.02714 1.02725 1.0273 1.02718
1.02725 1.0272 1.02714 1.02722 1.02735 1.02726 1.02723 1.02713 1.02711 1.02717
1.02732 1.02733 1.02718 1.0271 1.02711 1.02721 1.02725 1.02735 1.02723 1.02713
1.02719 1.02724 1.02717 1.0273 1.02726 1.02714 1.02721 1.02722 1.02715 1.02728
1.02727 1.02714 1.02722 1.02722 1.02714 1.02727 1.02728 1.02715 1.02722 1.02721
1.02714 1.02726 1.0273 1.02717 1.02724 1.02719 1.02713 1.02723 1.02735 1.02725
1.02721 1.02711 1.0271 1.02718 1.02733 1.02734 1.0272 1.0271 1.0271 1.02719
1.02724 1.02735 1.02724 1.02713 1.02718 1.02723 1.02716 1.02731 1.02726 1.02713
1.0272 1.02721 1.02714 1.02728 1.02727 1.02714 1.0272 1.0272 1.02714 1.02727
1.02728 1.02714 1.02721 1.0272 1.02713 1.02726 1.02731 1.02716 1.02722 1.02718
1.02713 1.02724 1.02735 1.02724 1.02719 1.0271 1.0271 1.0272 1.02734 1.02735
1.02722 1.0271 1.02709 1.02717 1.02723 1.02735 1.02725 1.02712 1.02717 1.02721
1.02716 1.02731 1.02727 1.02713 1.02719 1.0272 1.02713 1.02728 1.02728 1.02714
1.02719 1.02719 1.02714 1.02728 1.02728 1.02713 1.0272 1.02719 1.02713 1.02727
1.02731 1.02716 1.02721 1.02716 1.02712 1.02725 1.02735 1.02723 1.02717 1.02709
1.0271 1.02722 1.02735 1.02737 1.02725 1.02711 1.02709 1.02716 1.02722 1.02735
1.02726 1.02712 1.02715 1.0272 1.02716 1.02732 1.02729 1.02713 1.02718 1.02719
1.02712 1.02729 1.02729 1.02714 1.02719 1.02719 1.02714 1.02729 1.02729 1.02712
1.02719 1.02718 1.02713 1.02729 1.02732 1.02716 1.0272 1.02715 1.02712 1.02726
1.02735 1.02722 1.02716 1.02709 1.02711 1.02725 1.02737 1.02739 1.02728 1.02712
1.02709 1.02715 1.02722 1.02735 1.02728 1.02712 1.02715 1.02719 1.02716 1.02732
1.0273 1.02713 1.02717 1.02719 1.02712 1.02731 1.02731 1.02714 1.02718 1.02718
1.02714 1.02731 1.02731 1.02712 1.02719 1.02717 1.02713 1.0273 1.02732 1.02716
1.02719 1.02715 1.02712 1.02728 1.02735 1.02722 1.02715 1.02709 1.02712 1.02728
1.02739 1.02742 1.02733 1.02716 1.0271 1.02715 1.02722 1.02735 1.0273 1.02715
1.02715 1.02719 1.02716 1.02733 1.02732 1.02716 1.02718 1.02719 1.02714 1.02732
1.02733 1.02716 1.02719 1.02719 1.02716 1.02733 1.02732 1.02714 1.02719 1.02718
1.02716 1.02732 1.02733 1.02716 1.02719 1.02715 1.02715 1.0273 1.02735 1.02722
1.02715 1.0271 1.02716 1.02733 1.02742 1.02746 1.02738 1.02721 1.02713 1.02717
1.02724 1.02735 1.02733 1.02719 1.02717 1.02721 1.02719 1.02734 1.02734 1.0272
1.0272 1.0272 1.02718 1.02734 1.02735 1.02718 1.0272 1.0272 1.02718 1.02735
1.02734 1.02718 1.0272 1.0272 1.0272 1.02734 1.02734 1.02719 1.02721 1.02717
1.02719 1.02733 1.02735 1.02724 1.02717 1.02713 1.02721 1.02738 1.02746 1.02753
1.02747 1.0273 1.02718 1.02722 1.02729 1.02737 1.02737 1.02727 1.02722 1.02725
1.02725 1.02737 1.02738 1.02727 1.02725 1.02726 1.02726 1.02739 1.02739 1.02724
1.02725 1.02725 1.02724 1.02738 1.02739 1.02726 1.02726 1.02725 1.02727 1.02738
1.02737 1.02724 1.02725 1.02722 1.02727 1.02737 1.02737 1.02729 1.02722 1.02718
1.0273 1.02746 1.02753 1.0276 1.02757 1.02748 1.0273 1.02732 1.02739 1.0274