# vtk DataFile Version 2.0
fuel_to_electrolyte
ASCII
DATASET POLYDATA
POINTS 1035 float
0.0035407 0 0 0.0035407 0 0.001 0.0035407 0.0005 0.001 0.0035407 0.0005
0 0.0035407 0.001 0.001 0.0035407 0.001 0 0.0035407 0.0015 0.001
0.0035407 0.0015 0 0.0035407 0.002 0.001 0.0035407 0.002 0 0.0035407
0.0025 0.001 0.0035407 0.0025 0 0.0035407 0.003 0.001 0.0035407 0.003
0 0.0035407 0.0035 0.001 0.0035407 0.0035 0 0.0035407 0.004 0.001
0.0035407 0.004 0 0.0035407 0.0045 0.001 0.0035407 0.0045 0 0.0035407
0.005 0.001 0.0035407 0.005 0 0.0035407 0.0055 0.001 0.0035407 0.0055
0 0.0035407 0.006 0.001 0.0035407 0.006 0 0.0035407 0.0065 0.001
0.0035407 0.0065 0 0.0035407 0.007 0.001 0.0035407 0.007 0 0.0035407
0.0075 0.001 0.0035407 0.0075 0 0.0035407 0.008 0.001 0.0035407 0.008
0 0.0035407 0.0085 0.001 0.0035407 0.0085 0 0.0035407 0.009 0.001
0.0035407 0.009 0 0.0035407 0.0095 0.001 0.0035407 0.0095 0 0.0035407
0.01 0.001 0.0035407 0.01 0 0.0035407 0.0105 0.001 0.0035407 0.0105
0 0.0035407 0.011 0.001 0.0035407 0.011 0 0.0035407 0.0115 0.001
0.0035407 0.0115 0 0.0035407 0.012 0.001 0.0035407 0.012 0 0.0035407
0.0125 0.001 0.0035407 0.0125 0 0.0035407 0.013 0.001 0.0035407 0.013
0 0.0035407 0.0135 0.001 0.0035407 0.0135 0 0.0035407 0.014 0.001
0.0035407 0.014 0 0.0035407 0.0145 0.001 0.0035407 0.0145 0 0.0035407
0.015 0.001 0.0035407 0.015 0 0.0035407 0.0155 0.001 0.0035407 0.0155
0 0.0035407 0.016 0.001 0.0035407 0.016 0 0.0035407 0.0165 0.001
0.0035407 0.0165 0 0.0035407 0.017 0.001 0.0035407 0.017 0 0.0035407
0.0175 0.001 0.0035407 0.0175 0 0.0035407 0.018 0.001 0.0035407 0.018
0 0.0035407 0.0185 0.001 0.0035407 0.0185 0 0.0035407 0.019 0.001
0.0035407 0.019 0 0.0035407 0.0195 0.001 0.0035407 0.0195 0 0.0035407
0.02 0.001 0.0035407 0.02 0 0.0035407 0.0205 0.001 0.0035407 0.0205
0 0.0035407 0.021 0.001 0.0035407 0.021 0 0.0035407 0.0215 0.001
0.0035407 0.0215 0 0.0035407 0.022 0.001 0.0035407 0.022 0 0.0035407
0 0.002 0.0035407 0.0005 0.002 0.0035407 0.001 0.002 0.0035407 0.0015
0.002 0.0035407 0.002 0.002 0.0035407 0.0025 0.002 0.0035407 0.003 0.002
0.0035407 0.0035 0.002 0.0035407 0.004 0.002 0.0035407 0.0045 0.002 0.0035407
0.005 0.002 0.0035407 0.0055 0.002 0.0035407 0.006 0.002 0.0035407 0.0065
0.002 0.0035407 0.007 0.002 0.0035407 0.0075 0.002 0.0035407 0.008 0.002
0.0035407 0.0085 0.002 0.0035407 0.009 0.002 0.0035407 0.0095 0.002 0.0035407
0.01 0.002 0.0035407 0.0105 0.002 0.0035407 0.011 0.002 0.0035407 0.0115
0.002 0.0035407 0.012 0.002 0.0035407 0.0125 0.002 0.0035407 0.013 0.002
0.0035407 0.0135 0.002 0.0035407 0.014 0.002 0.0035407 0.0145 0.002 0.0035407
0.015 0.002 0.0035407 0.0155 0.002 0.0035407 0.016 0.002 0.0035407 0.0165
0.002 0.0035407 0.017 0.002 0.0035407 0.0175 0.002 0.0035407 0.018 0.002
0.0035407 0.0185 0.002 0.0035407 0.019 0.002 0.0035407 0.0195 0.002 0.0035407
0.02 0.002 0.0035407 0.0205 0.002 0.0035407 0.021 0.002 0.0035407 0.0215
0.002 0.0035407 0.022 0.002 0.0035407 0 0.003 0.0035407 0.0005 0.003
0.0035407 0.001 0.003 0.0035407 0.0015 0.003 0.0035407 0.002 0.003 0.0035407
0.0025 0.003 0.0035407 0.003 0.003 0.0035407 0.0035 0.003 0.0035407 0.004
0.003 0.0035407 0.0045 0.003 0.0035407 0.005 0.003 0.0035407 0.0055 0.003
0.0035407 0.006 0.003 0.0035407 0.0065 0.003 0.0035407 0.007 0.003 0.0035407
0.0075 0.003 0.0035407 0.008 0.003 0.0035407 0.0085 0.003 0.0035407 0.009
0.003 0.0035407 0.0095 0.003 0.0035407 0.01 0.003 0.0035407 0.0105 0.003
0.0035407 0.011 0.003 0.0035407 0.0115 0.003 0.0035407 0.012 0.003 0.0035407
0.0125 0.003 0.0035407 0.013 0.003 0.0035407 0.0135 0.003 0.0035407 0.014
0.003 0.0035407 0.0145 0.003 0.0035407 0.015 0.003 0.0035407 0.0155 0.003
0.0035407 0.016 0.003 0.0035407 0.0165 0.003 0.0035407 0.017 0.003 0.0035407
0.0175 0.003 0.0035407 0.018 0.003 0.0035407 0.0185 0.003 0.0035407 0.019
0.003 0.0035407 0.0195 0.003 0.0035407 0.02 0.003 0.0035407 0.0205 0.003
0.0035407 0.021 0.003 0.0035407 0.0215 0.003 0.0035407 0.022 0.003 0.0035407
0 0.004 0.0035407 0.0005 0.004 0.0035407 0.001 0.004 0.0035407 0.0015
0.004 0.0035407 0.002 0.004 0.0035407 0.0025 0.004 0.0035407 0.003 0.004
0.0035407 0.0035 0.004 0.0035407 0.004 0.004 0.0035407 0.0045 0.004 0.0035407
0.005 0.004 0.0035407 0.0055 0.004 0.0035407 0.006 0.004 0.0035407 0.0065
0.004 0.0035407 0.007 0.004 0.0035407 0.0075 0.004 0.0035407 0.008 0.004
0.0035407 0.0085 0.004 0.0035407 0.009 0.004 0.0035407 0.0095 0.004 0.0035407
0.01 0.004 0.0035407 0.0105 0.004 0.0035407 0.011 0.004 0.0035407 0.0115
0.004 0.0035407 0.012 0.004 0.0035407 0.0125 0.004 0.0035407 0.013 0.004
0.0035407 0.0135 0.004 0.0035407 0.014 0.004 0.0035407 0.0145 0.004 0.0035407
0.015 0.004 0.0035407 0.0155 0.004 0.0035407 0.016 0.004 0.0035407 0.0165
0.004 0.0035407 0.017 0.004 0.0035407 0.0175 0.004 0.0035407 0.018 0.004
0.0035407 0.0185 0.004 0.0035407 0.019 0.004 0.0035407 0.0195 0.004 0.0035407
0.02 0.004 0.0035407 0.0205 0.004 0.0035407 0.021 0.004 0.0035407 0.0215
0.004 0.0035407 0.022 0.004 0.0035407 0 0.005 0.0035407 0.0005 0.005
0.0035407 0.001 0.005 0.0035407 0.0015 0.005 0.0035407 0.002 0.005 0.0035407
0.0025 0.005 0.0035407 0.003 0.005 0.0035407 0.0035 0.005 0.0035407 0.004
0.005 0.0035407 0.0045 0.005 0.0035407 0.005 0.005 0.0035407 0.0055 0.005
0.0035407 0.006 0.005 0.0035407 0.0065 0.005 0.0035407 0.007 0.005 0.0035407
0.0075 0.005 0.0035407 0.008 0.005 0.0035407 0.0085 0.005 0.0035407 0.009
0.005 0.0035407 0.0095 0.005 0.0035407 0.01 0.005 0.0035407 0.0105 0.005
0.0035407 0.011 0.005 0.0035407 0.0115 0.005 0.0035407 0.012 0.005 0.0035407
0.0125 0.005 0.0035407 0.013 0.005 0.0035407 0.0135 0.005 0.0035407 0.014
0.005 0.0035407 0.0145 0.005 0.0035407 0.015 0.005 0.0035407 0.0155 0.005
0.0035407 0.016 0.005 0.0035407 0.0165 0.005 0.0035407 0.017 0.005 0.0035407
0.0175 0.005 0.0035407 0.018 0.005 0.0035407 0.0185 0.005 0.0035407 0.019
0.005 0.0035407 0.0195 0.005 0.0035407 0.02 0.005 0.0035407 0.0205 0.005
0.0035407 0.021 0.005 0.0035407 0.0215 0.005 0.0035407 0.022 0.005 0.0035407
0 0.006 0.0035407 0.0005 0.006 0.0035407 0.001 0.006 0.0035407 0.0015
0.006 0.0035407 0.002 0.006 0.0035407 0.0025 0.006 0.0035407 0.003 0.006
0.0035407 0.0035 0.006 0.0035407 0.004 0.006 0.0035407 0.0045 0.006 0.0035407
0.005 0.006 0.0035407 0.0055 0.006 0.0035407 0.006 0.006 0.0035407 0.0065
0.006 0.0035407 0.007 0.006 0.0035407 0.0075 0.006 0.0035407 0.008 0.006
0.0035407 0.0085 0.006 0.0035407 0.009 0.006 0.0035407 0.0095 0.006 0.0035407
0.01 0.006 0.0035407 0.0105 0.006 0.0035407 0.011 0.006 0.0035407 0.0115
0.006 0.0035407 0.012 0.006 0.0035407 0.0125 0.006 0.0035407 0.013 0.006
0.0035407 0.0135 0.006 0.0035407 0.014 0.006 0.0035407 0.0145 0.006 0.0035407
0.015 0.006 0.0035407 0.0155 0.006 0.0035407 0.016 0.006 0.0035407 0.0165
0.006 0.0035407 0.017 0.006 0.0035407 0.0175 0.006 0.0035407 0.018 0.006
0.0035407 0.0185 0.006 0.0035407 0.019 0.006 0.0035407 0.0195 0.006 0.0035407
0.02 0.006 0.0035407 0.0205 0.006 0.0035407 0.021 0.006 0.0035407 0.0215
0.006 0.0035407 0.022 0.006 0.0035407 0 0.007 0.0035407 0.0005 0.007
0.0035407 0.001 0.007 0.0035407 0.0015 0.007 0.0035407 0.002 0.007 0.0035407
0.0025 0.007 0.0035407 0.003 0.007 0.0035407 0.0035 0.007 0.0035407 0.004
0.007 0.0035407 0.0045 0.007 0.0035407 0.005 0.007 0.0035407 0.0055 0.007
0.0035407 0.006 0.007 0.0035407 0.0065 0.007 0.0035407 0.007 0.007 0.0035407
0.0075 0.007 0.0035407 0.008 0.007 0.0035407 0.0085 0.007 0.0035407 0.009
0.007 0.0035407 0.0095 0.007 0.0035407 0.01 0.007 0.0035407 0.0105 0.007
0.0035407 0.011 0.007 0.0035407 0.0115 0.007 0.0035407 0.012 0.007 0.0035407
0.0125 0.007 0.0035407 0.013 0.007 0.0035407 0.0135 0.007 0.0035407 0.014
0.007 0.0035407 0.0145 0.007 0.0035407 0.015 0.007 0.0035407 0.0155 0.007
0.0035407 0.016 0.007 0.0035407 0.0165 0.007 0.0035407 0.017 0.007 0.0035407
0.0175 0.007 0.0035407 0.018 0.007 0.0035407 0.0185 0.007 0.0035407 0.019
0.007 0.0035407 0.0195 0.007 0.0035407 0.02 0.007 0.0035407 0.0205 0.007
0.0035407 0.021 0.007 0.0035407 0.0215 0.007 0.0035407 0.022 0.007 0.0035407
0 0.008 0.0035407 0.0005 0.008 0.0035407 0.001 0.008 0.0035407 0.0015
0.008 0.0035407 0.002 0.008 0.0035407 0.0025 0.008 0.0035407 0.003 0.008
0.0035407 0.0035 0.008 0.0035407 0.004 0.008 0.0035407 0.0045 0.008 0.0035407
0.005 0.008 0.0035407 0.0055 0.008 0.0035407 0.006 0.008 0.0035407 0.0065
0.008 0.0035407 0.007 0.008 0.0035407 0.0075 0.008 0.0035407 0.008 0.008
0.0035407 0.0085 0.008 0.0035407 0.009 0.008 0.0035407 0.0095 0.008 0.0035407
0.01 0.008 0.0035407 0.0105 0.008 0.0035407 0.011 0.008 0.0035407 0.0115
0.008 0.0035407 0.012 0.008 0.0035407 0.0125 0.008 0.0035407 0.013 0.008
0.0035407 0.0135 0.008 0.0035407 0.014 0.008 0.0035407 0.0145 0.008 0.0035407
0.015 0.008 0.0035407 0.0155 0.008 0.0035407 0.016 0.008 0.0035407 0.0165
0.008 0.0035407 0.017 0.008 0.0035407 0.0175 0.008 0.0035407 0.018 0.008
0.0035407 0.0185 0.008 0.0035407 0.019 0.008 0.0035407 0.0195 0.008 0.0035407
0.02 0.008 0.0035407 0.0205 0.008 0.0035407 0.021 0.008 0.0035407 0.0215
0.008 0.0035407 0.022 0.008 0.0035407 0 0.009 0.0035407 0.0005 0.009
0.0035407 0.001 0.009 0.0035407 0.0015 0.009 0.0035407 0.002 0.009 0.0035407
0.0025 0.009 0.0035407 0.003 0.009 0.0035407 0.0035 0.009 0.0035407 0.004
0.009 0.0035407 0.0045 0.009 0.0035407 0.005 0.009 0.0035407 0.0055 0.009
0.0035407 0.006 0.009 0.0035407 0.0065 0.009 0.0035407 0.007 0.009 0.0035407
0.0075 0.009 0.0035407 0.008 0.009 0.0035407 0.0085 0.009 0.0035407 0.009
0.009 0.0035407 0.0095 0.009 0.0035407 0.01 0.009 0.0035407 0.0105 0.009
0.0035407 0.011 0.009 0.0035407 0.0115 0.009 0.0035407 0.012 0.009 0.0035407
0.0125 0.009 0.0035407 0.013 0.009 0.0035407 0.0135 0.009 0.0035407 0.014
0.009 0.0035407 0.0145 0.009 0.0035407 0.015 0.009 0.0035407 0.0155 0.009
0.0035407 0.016 0.009 0.0035407 0.0165 0.009 0.0035407 0.017 0.009 0.0035407
0.0175 0.009 0.0035407 0.018 0.009 0.0035407 0.0185 0.009 0.0035407 0.019
0.009 0.0035407 0.0195 0.009 0.0035407 0.02 0.009 0.0035407 0.0205 0.009
0.0035407 0.021 0.009 0.0035407 0.0215 0.009 0.0035407 0.022 0.009 0.0035407
[...]
CELL_DATA 968
FIELD attributes 16
patchID 1 968 float
4 4 4 4 4 4 4 4 4 4 4
4 4 4 4 4 4 4 4 4 4
4 4 4 4 4 4 4 4 4 4
4 4 4 4 4 4 4 4 4 4
4 4 4 4 4 4 4 4 4 4
4 4 4 4 4 4 4 4 4 4
4 4 4 4 4 4 4 4 4 4
4 4 4 4 4 4 4 4 4 4
4 4 4 4 4 4 4 4 4 4
4 4 4 4 4 4 4 4 4 4
4 4 4 4 4 4 4 4 4 4
4 4 4 4 4 4 4 4 4 4
4 4 4 4 4 4 4 4 4 4
4 4 4 4 4 4 4 4 4 4
4 4 4 4 4 4 4 4 4 4
4 4 4 4 4 4 4 4 4 4
4 4 4 4 4 4 4 4 4 4
4 4 4 4 4 4 4 4 4 4
4 4 4 4 4 4 4 4 4 4
4 4 4 4 4 4 4 4 4 4
4 4 4 4 4 4 4 4 4 4
4 4 4 4 4 4 4 4 4 4
4 4 4 4 4 4 4 4 4 4
4 4 4 4 4 4 4 4 4 4
4 4 4 4 4 4 4 4 4 4
4 4 4 4 4 4 4 4 4 4
4 4 4 4 4 4 4 4 4 4
4 4 4 4 4 4 4 4 4 4
4 4 4 4 4 4 4 4 4 4
4 4 4 4 4 4 4 4 4 4
4 4 4 4 4 4 4 4 4 4
4 4 4 4 4 4 4 4 4 4
4 4 4 4 4 4 4 4 4 4
4 4 4 4 4 4 4 4 4 4
4 4 4 4 4 4 4 4 4 4
4 4 4 4 4 4 4 4 4 4
4 4 4 4 4 4 4 4 4 4
4 4 4 4 4 4 4 4 4 4
4 4 4 4 4 4 4 4 4 4
4 4 4 4 4 4 4 4 4 4
4 4 4 4 4 4 4 4 4 4
4 4 4 4 4 4 4 4 4 4
4 4 4 4 4 4 4 4 4 4
4 4 4 4 4 4 4 4 4 4
4 4 4 4 4 4 4 4 4 4
4 4 4 4 4 4 4 4 4 4
4 4 4 4 4 4 4 4 4 4
4 4 4 4 4 4 4 4 4 4
4 4 4 4 4 4 4 4 4 4
4 4 4 4 4 4 4 4 4 4
4 4 4 4 4 4 4 4 4 4
4 4 4 4 4 4 4 4 4 4
4 4 4 4 4 4 4 4 4 4
4 4 4 4 4 4 4 4 4 4
4 4 4 4 4 4 4 4 4 4
4 4 4 4 4 4 4 4 4 4
4 4 4 4 4 4 4 4 4 4
4 4 4 4 4 4 4 4 4 4
4 4 4 4 4 4 4 4 4 4
4 4 4 4 4 4 4 4 4 4
4 4 4 4 4 4 4 4 4 4
4 4 4 4 4 4 4 4 4 4
4 4 4 4 4 4 4 4 4 4
4 4 4 4 4 4 4 4 4 4
4 4 4 4 4 4 4 4 4 4
4 4 4 4 4 4 4 4 4 4
4 4 4 4 4 4 4 4 4 4
4 4 4 4 4 4 4 4 4 4
4 4 4 4 4 4 4 4 4 4
4 4 4 4 4 4 4 4 4 4
4 4 4 4 4 4 4 4 4 4
4 4 4 4 4 4 4 4 4 4
4 4 4 4 4 4 4 4 4 4
4 4 4 4 4 4 4 4 4 4
4 4 4 4 4 4 4 4 4 4
4 4 4 4 4 4 4 4 4 4
4 4 4 4 4 4 4 4 4 4
4 4 4 4 4 4 4 4 4 4
4 4 4 4 4 4 4 4 4 4
4 4 4 4 4 4 4 4 4 4
4 4 4 4 4 4 4 4 4 4
4 4 4 4 4 4 4 4 4 4
4 4 4 4 4 4 4 4 4 4
4 4 4 4 4 4 4 4 4 4
4 4 4 4 4 4 4 4 4 4
4 4 4 4 4 4 4 4 4 4
4 4 4 4 4 4 4 4 4 4
4 4 4 4 4 4 4 4 4 4
4 4 4 4 4 4 4 4 4 4
4 4 4 4 4 4 4 4 4 4
4 4 4 4 4 4 4 4 4 4
4 4 4 4 4 4 4 4 4 4
4 4 4 4 4 4 4 4 4 4
4 4 4 4 4 4 4 4 4 4
4 4 4 4 4 4 4 4 4 4
4 4 4 4 4 4 4 4 4 4
4 4 4 4 4 4 4 
diffH2Ofuel 1 968 float
0 0 0 0 0 0 0 0 0 0 0
0 0 0 0 0 0 0 0 0 0
0 0 0 0 0 0 0 0 0 0
0 0 0 0 0 0 0 0 0 0
0 0 0 0 0 0 0 0 0 0
0 0 0 0 0 0 0 0 0 0
0 0 0 0 0 0 0 0 0 0
0 0 0 0 0 0 0 0 0 0
0 0 0 0 0 0 0 0 0 0
0 0 0 0 0 0 0 0 0 0
0 0 0 0 0 0 0 0 0 0
0 0 0 0 0 0 0 0 0 0
0 0 0 0 0 0 0 0 0 0
0 0 0 0 0 0 0 0 0 0
0 0 0 0 0 0 0 0 0 0
0 0 0 0 0 0 0 0 0 0
0 0 0 0 0 0 0 0 0 0
0 0 0 0 0 0 0 0 0 0
0 0 0 0 0 0 0 0 0 0
0 0 0 0 0 0 0 0 0 0
0 0 0 0 0 0 0 0 0 0
0 0 0 0 0 0 0 0 0 0
0 0 0 0 0 0 0 0 0 0
0 0 0 0 0 0 0 0 0 0
0 0 0 0 0 0 0 0 0 0
0 0 0 0 0 0 0 0 0 0
0 0 0 0 0 0 0 0 0 0
0 0 0 0 0 0 0 0 0 0
0 0 0 0 0 0 0 0 0 0
0 0 0 0 0 0 0 0 0 0
0 0 0 0 0 0 0 0 0 0
0 0 0 0 0 0 0 0 0 0
0 0 0 0 0 0 0 0 0 0
0 0 0 0 0 0 0 0 0 0
0 0 0 0 0 0 0 0 0 0
0 0 0 0 0 0 0 0 0 0
0 0 0 0 0 0 0 0 0 0
0 0 0 0 0 0 0 0 0 0
0 0 0 0 0 0 0 0 0 0
0 0 0 0 0 0 0 0 0 0
0 0 0 0 0 0 0 0 0 0
0 0 0 0 0 0 0 0 0 0
0 0 0 0 0 0 0 0 0 0
0 0 0 0 0 0 0 0 0 0
0 0 0 0 0 0 0 0 0 0
0 0 0 0 0 0 0 0 0 0
0 0 0 0 0 0 0 0 0 0
0 0 0 0 0 0 0 0 0 0
0 0 0 0 0 0 0 0 0 0
0 0 0 0 0 0 0 0 0 0
0 0 0 0 0 0 0 0 0 0
0 0 0 0 0 0 0 0 0 0
0 0 0 0 0 0 0 0 0 0
0 0 0 0 0 0 0 0 0 0
0 0 0 0 0 0 0 0 0 0
0 0 0 0 0 0 0 0 0 0
0 0 0 0 0 0 0 0 0 0
0 0 0 0 0 0 0 0 0 0
0 0 0 0 0 0 0 0 0 0
0 0 0 0 0 0 0 0 0 0
0 0 0 0 0 0 0 0 0 0
0 0 0 0 0 0 0 0 0 0
0 0 0 0 0 0 0 0 0 0
0 0 0 0 0 0 0 0 0 0
0 0 0 0 0 0 0 0 0 0
0 0 0 0 0 0 0 0 0 0
0 0 0 0 0 0 0 0 0 0
0 0 0 0 0 0 0 0 0 0
0 0 0 0 0 0 0 0 0 0
0 0 0 0 0 0 0 0 0 0
0 0 0 0 0 0 0 0 0 0
0 0 0 0 0 0 0 0 0 0
0 0 0 0 0 0 0 0 0 0
0 0 0 0 0 0 0 0 0 0
0 0 0 0 0 0 0 0 0 0
0 0 0 0 0 0 0 0 0 0
0 0 0 0 0 0 0 0 0 0
0 0 0 0 0 0 0 0 0 0
0 0 0 0 0 0 0 0 0 0
0 0 0 0 0 0 0 0 0 0
0 0 0 0 0 0 0 0 0 0
0 0 0 0 0 0 0 0 0 0
0 0 0 0 0 0 0 0 0 0
0 0 0 0 0 0 0 0 0 0
0 0 0 0 0 0 0 0 0 0
0 0 0 0 0 0 0 0 0 0
0 0 0 0 0 0 0 0 0 0
0 0 0 0 0 0 0 0 0 0
0 0 0 0 0 0 0 0 0 0
0 0 0 0 0 0 0 0 0 0
0 0 0 0 0 0 0 0 0 0
0 0 0 0 0 0 0 0 0 0
0 0 0 0 0 0 0 0 0 0
0 0 0 0 0 0 0 0 0 0
0 0 0 0 0 0 0 0 0 0
0 0 0 0 0 0 0 0 0 0
0 0 0 0 0 0 0 
XCH3OHfuel 1 968 float
0.833296 0.833951 0.834365 0.834395 0.834384 0.834356 0.833938 0.833969 0.834359 0.834384 0.834384
0.834359 0.833957 0.833966 0.83436 0.834385 0.834384 0.83436 0.833962 0.833965 0.83436
0.834384 0.834384 0.83436 0.833965 0.833961 0.834359 0.834384 0.834384 0.83436 0.833964
0.833955 0.834357 0.834383 0.834384 0.83436 0.83397 0.833939 0.834356 0.834385 0.834398
0.834368 0.833957 0.833306 0.833271 0.833826 0.834237 0.83428 0.834267 0.834213 0.83378
0.833822 0.834222 0.834267 0.834266 0.834216 0.833797 0.833813 0.83422 0.834266 0.834265
0.834217 0.833803 0.833807 0.834217 0.834265 0.834265 0.834217 0.833807 0.833803 0.834218
0.834266 0.834266 0.83422 0.833813 0.833797 0.834216 0.834265 0.834268 0.834222 0.833822
0.833781 0.834213 0.834267 0.834281 0.834238 0.833828 0.833275 0.833072 0.833617 0.834098
0.834167 0.834152 0.834069 0.833601 0.83365 0.834085 0.834155 0.834152 0.834075 0.83362
0.833641 0.834082 0.834155 0.834154 0.834079 0.833629 0.833634 0.83408 0.834154 0.834154
0.83408 0.833634 0.833629 0.834079 0.834154 0.834155 0.834082 0.833641 0.83362 0.834075
0.834152 0.834155 0.834085 0.83365 0.833601 0.834069 0.834152 0.834168 0.834099 0.833619
0.833075 0.832811 0.833339 0.833941 0.834056 0.834042 0.833915 0.833416 0.833453 0.833943
0.834048 0.834043 0.833924 0.833431 0.833446 0.833937 0.834047 0.834044 0.833929 0.833436
0.83344 0.833932 0.834044 0.834044 0.833932 0.83344 0.833436 0.833928 0.834043 0.834046
0.833937 0.833446 0.83343 0.833924 0.834043 0.834049 0.833943 0.833453 0.833416 0.833915
0.834043 0.834057 0.833942 0.833341 0.832814 0.832547 0.833068 0.833792 0.833956 0.833942
0.833779 0.833229 0.833258 0.833817 0.833952 0.833945 0.83379 0.833241 0.833254 0.833812
0.833952 0.833949 0.833802 0.833248 0.833252 0.833803 0.833949 0.833949 0.833803 0.833252
0.833249 0.833802 0.833949 0.833952 0.833811 0.833255 0.833242 0.833791 0.833946 0.833952
0.833817 0.833257 0.833229 0.833779 0.833941 0.833953 0.83379 0.833066 0.832546 0.832276
0.832802 0.83364 0.833859 0.833851 0.833655 0.83305 0.833075 0.83371 0.83387 0.833861
0.833678 0.833063 0.833073 0.833699 0.833868 0.833866 0.83369 0.83307 0.833071 0.833688
0.833864 0.833864 0.833688 0.833071 0.83307 0.83369 0.833865 0.833868 0.833699 0.833073
0.833062 0.833677 0.833861 0.83387 0.833711 0.833076 0.833051 0.833656 0.833852 0.833861
0.833643 0.832806 0.832281 0.832009 0.832561 0.833518 0.833781 0.833777 0.833554 0.832887
0.832917 0.83362 0.833802 0.833791 0.833585 0.832897 0.832906 0.833601 0.833797 0.833793
0.833593 0.832902 0.832902 0.833592 0.833791 0.833791 0.833592 0.832902 0.832902 0.833594
0.833794 0.833796 0.833601 0.832905 0.832897 0.833585 0.833791 0.833802 0.83362 0.832918
0.832887 0.833554 0.833777 0.833782 0.833519 0.832564 0.832012 0.831745 0.832337 0.833411
0.833711 0.833712 0.833472 0.832734 0.83276 0.833532 0.833738 0.833728 0.8335 0.832746
0.832753 0.833517 0.833734 0.833732 0.833509 0.832751 0.832752 0.833511 0.833731 0.833731
0.833511 0.832752 0.832751 0.83351 0.833732 0.833734 0.833517 0.832753 0.832746 0.8335
0.833728 0.833738 0.833533 0.832761 0.832734 0.833472 0.833713 0.833712 0.833413 0.83234
0.831748 0.83149 0.832132 0.833319 0.833652 0.833658 0.833403 0.832598 0.832621 0.833453
0.833682 0.833674 0.83343 0.832611 0.832614 0.833437 0.833677 0.833676 0.833429 0.832613
0.832618 0.833439 0.833677 0.833677 0.833439 0.832617 0.832612 0.833429 0.833675 0.833677
0.833436 0.832614 0.83261 0.83343 0.833674 0.833683 0.833454 0.832621 0.832598 0.833402
0.833659 0.833652 0.83332 0.832134 0.831493 0.831247 0.831941 0.833233 0.833597 0.833607
0.833339 0.832473 0.832492 0.833379 0.83363 0.833624 0.833367 0.832501 0.832489 0.833355
0.833622 0.833623 0.833356 0.83249 0.8325 0.833373 0.833628 0.833628 0.833373 0.832499
0.83249 0.833356 0.833623 0.833623 0.833354 0.83249 0.832502 0.833368 0.833625 0.83363
0.83338 0.832492 0.832473 0.833338 0.833606 0.833595 0.833232 0.83194 0.831246 0.831014
0.831759 0.833149 0.833542 0.833559 0.83328 0.832362 0.832375 0.833309 0.833581 0.83358
0.833311 0.832409 0.832379 0.833276 0.83357 0.833574 0.833293 0.832378 0.832385 0.833303
0.833578 0.833578 0.833303 0.832385 0.832378 0.833293 0.833574 0.83357 0.833275 0.832378
0.832408 0.833311 0.83358 0.833582 0.833309 0.832376 0.832363 0.833281 0.83356 0.833545
0.833152 0.831763 0.831018 0.830799 0.831593 0.83307 0.833495 0.833518 0.833226 0.832265
0.832274 0.833246 0.833538 0.83354 0.833261 0.832331 0.832281 0.833204 0.83352 0.833529
0.833238 0.832283 0.832279 0.83323 0.833528 0.833528 0.83323 0.832279 0.832283 0.833239
0.83353 0.83352 0.833204 0.832282 0.832332 0.833261 0.83354 0.833539 0.833247 0.832274
0.832265 0.833226 0.833518 0.833496 0.833072 0.831595 0.830802 0.830595 0.831435 0.832994
0.833448 0.833477 0.833176 0.832185 0.832181 0.833181 0.833495 0.8335 0.833212 0.832257
0.832195 0.833143 0.833476 0.83349 0.833191 0.832207 0.832187 0.833166 0.833484 0.833484
0.833166 0.832187 0.832207 0.833191 0.83349 0.833476 0.833143 0.832195 0.832257 0.833212
0.8335 0.833495 0.833181 0.832181 0.832186 0.833176 0.833477 0.833449 0.832996 0.831438
0.830597 0.830402 0.831285 0.832921 0.833404 0.83344 0.833134 0.832125 0.8321 0.833114
0.833452 0.833463 0.833164 0.832178 0.832114 0.833089 0.833435 0.833452 0.833144 0.832137
0.832103 0.833104 0.83344 0.83344 0.833105 0.832103 0.832137 0.833143 0.833452 0.833435
0.833089 0.832115 0.832178 0.833164 0.833463 0.833452 0.833115 0.832101 0.832125 0.833134
0.83344 0.833405 0.832923 0.831288 0.830405 0.83022 0.831147 0.832857 0.833363 0.833404
0.833095 0.832079 0.832028 0.83305 0.833407 0.833424 0.833116 0.832099 0.832039 0.833043
0.833398 0.833417 0.833101 0.832075 0.832031 0.83305 0.8334 0.8334 0.83305 0.832031
0.832075 0.833101 0.833417 0.833398 0.833042 0.83204 0.8321 0.833117 0.833425 0.833407
0.83305 0.832028 0.832078 0.833094 0.833403 0.833361 0.832856 0.831146 0.83022 0.830045
0.831009 0.832784 0.833318 0.833368 0.833059 0.83204 0.831964 0.832983 0.833361 0.833386
0.83307 0.832021 0.831968 0.832995 0.83336 0.83338 0.833057 0.83201 0.831961 0.832994
0.833358 0.833358 0.832994 0.831961 0.83201 0.833057 0.83338 0.83336 0.832995 0.831968
0.832021 0.833069 0.833386 0.833362 0.832985 0.831965 0.83204 0.833059 0.833369 0.833321
0.832787 0.831013 0.83005 0.829884 0.830879 0.832711 0.833277 0.833337 0.833028 0.832006
0.831909 0.832923 0.83332 0.83335 0.833026 0.831956 0.831903 0.832945 0.833322 0.833343
0.833011 0.831935 0.831893 0.832948 0.833319 0.833319 0.832948 0.831893 0.831935 0.833012
0.833344 0.833322 0.832945 0.831903 0.831957 0.833027 0.83335 0.833321 0.832924 0.83191
0.832006 0.833028 0.833337 0.833278 0.832713 0.830882 0.829887 0.829724 0.830738 0.832611
0.833226 0.8333 0.832991 0.831961 0.831853 0.832855 0.833274 0.833312 0.832979 0.831887
0.831837 0.832888 0.833281 0.833305 0.832959 0.831861 0.831828 0.832901 0.833282 0.833282
0.832901 0.831829 0.831861 0.832959 0.833305 0.833282 0.832888 0.831838 0.831887 0.832979
0.833312 0.833274 0.832856 0.831854 0.831962 0.832991 0.833301 0.833227 0.832613 0.830741
0.829727 0.829556 0.83056 0.832445 0.833154 0.833258 0.832943 0.831881 0.831789 0.832775
0.833223 0.833268 0.832911 0.83181 0.831768 0.832815 0.833235 0.83326 0.832884 0.831784
0.831759 0.832832 0.833237 0.833237 0.832832 0.831759 0.831784 0.832883 0.833259 0.833235
0.832815 0.831768 0.831809 0.832911 0.833268 0.833223 0.832775 0.831789 0.831881 0.832943
0.833258 0.833155 0.832447 0.830564 0.829559 0.829366 0.830362 0.832273 0.833076 0.833209
0.832886 0.831804 0.831713 0.832687 0.833168 0.83322 0.832836 0.831726 0.831689 0.832737
0.833187 0.833211 0.832804 0.831704 0.831684 0.83276 0.833191 0.833191 0.83276 0.831684
0.831704 0.832804 0.833211 0.833187 0.832738 0.83169 0.831727 0.832837 0.83322 0.833167
0.832687 0.831712 0.831804 0.832886 0.833207 0.833074 0.832273 0.830362 0.829366 0.829091
0.829948 0.831695 0.832852 0.833073 0.832641 0.83166 0.831578 0.83242 0.833042 0.833098
0.832569 0.831592 0.831558 0.832477 0.833067 0.833089 0.832534 0.831571 0.831555 0.832501
0.833072 0.833072 0.832501 0.831555 0.83157 0.832533 0.833089 0.833067 0.832478 0.831558
0.831591 0.832568 0.833098 0.833043 0.832421 0.831579 0.831661 0.832642 0.833075 0.832856
0.8317 0.829954 0.829096 0.828625 0.829239 0.830648 0.83221 0.832677 0.832117 0.831365
0.831294 0.83193 0.832671 0.832733 0.832049 0.831305 0.831276 0.831977 0.832702 0.832722
0.832014 0.831282 0.831272 0.831995 0.83271 0.83271 0.831995 0.831272 0.831282 0.832015
0.832722 0.832702 0.831978 0.831276 0.831305 0.832049 0.832732 0.832672 0.83193 0.831295
0.831366 0.832117 0.832678 0.832212 0.830652 0.829243 0.828629 
rho 1 968 float
1.02639 1.02615 1.02607 1.0261 1.02611 1.02608 1.02618 1.02617 1.02608 1.02611 1.02611
1.02608 1.02618 1.02617 1.02608 1.02611 1.02611 1.02608 1.02618 1.02617 1.02608
1.02611 1.02611 1.02608 1.02617 1.02618 1.02608 1.02611 1.02611 1.02608 1.02617
1.02618 1.02608 1.02611 1.02611 1.02608 1.02617 1.02618 1.02608 1.02611 1.0261
1.02606 1.02615 1.02639 1.0264 1.02618 1.02606 1.02608 1.02608 1.02608 1.02622
1.0262 1.02608 1.02609 1.02609 1.02608 1.02622 1.02621 1.02608 1.02609 1.02609
1.02609 1.02622 1.02621 1.02609 1.02609 1.02609 1.02609 1.02621 1.02622 1.02609
1.02609 1.02609 1.02608 1.02621 1.02622 1.02608 1.02609 1.02609 1.02608 1.0262
1.02622 1.02608 1.02608 1.02608 1.02606 1.02618 1.0264 1.02647 1.02625 1.02608
1.02606 1.02607 1.02609 1.02627 1.02625 1.02609 1.02608 1.02608 1.0261 1.02627
1.02626 1.02609 1.02608 1.02608 1.0261 1.02626 1.02626 1.0261 1.02608 1.02608
1.0261 1.02626 1.02626 1.0261 1.02608 1.02608 1.02609 1.02626 1.02627 1.0261
1.02608 1.02608 1.02609 1.02625 1.02627 1.02609 1.02607 1.02606 1.02607 1.02625
1.02647 1.02656 1.02635 1.02611 1.02607 1.02608 1.02612 1.02633 1.02631 1.02611
1.02608 1.02608 1.02612 1.02632 1.02632 1.02612 1.02608 1.02608 1.02612 1.02632
1.02632 1.02612 1.02608 1.02608 1.02612 1.02632 1.02632 1.02612 1.02608 1.02608
1.02612 1.02632 1.02632 1.02612 1.02608 1.02608 1.02611 1.02631 1.02633 1.02612
1.02608 1.02607 1.02611 1.02635 1.02656 1.02666 1.02645 1.02614 1.02608 1.02609
1.02615 1.02638 1.02637 1.02614 1.02609 1.02609 1.02615 1.02638 1.02638 1.02614
1.02609 1.02609 1.02615 1.02638 1.02638 1.02615 1.02609 1.02609 1.02615 1.02638
1.02638 1.02615 1.02609 1.02609 1.02614 1.02638 1.02638 1.02615 1.02609 1.02609
1.02614 1.02637 1.02638 1.02615 1.02609 1.02608 1.02614 1.02645 1.02666 1.02676
1.02654 1.02619 1.0261 1.0261 1.02618 1.02644 1.02643 1.02616 1.0261 1.0261
1.02618 1.02644 1.02644 1.02617 1.0261 1.0261 1.02617 1.02644 1.02644 1.02618
1.0261 1.0261 1.02618 1.02644 1.02644 1.02617 1.0261 1.0261 1.02617 1.02644
1.02644 1.02618 1.0261 1.0261 1.02616 1.02643 1.02644 1.02618 1.0261 1.02609
1.02619 1.02654 1.02676 1.02686 1.02663 1.02622 1.02611 1.02611 1.02621 1.0265
1.02648 1.02618 1.0261 1.02611 1.0262 1.02649 1.02649 1.02619 1.02611 1.02611
1.0262 1.02649 1.02649 1.0262 1.02611 1.02611 1.0262 1.02649 1.02649 1.0262
1.02611 1.02611 1.02619 1.02649 1.02649 1.0262 1.02611 1.0261 1.02618 1.02648
1.0265 1.02621 1.02611 1.02611 1.02622 1.02663 1.02686 1.02696 1.02671 1.02625
1.02612 1.02612 1.02622 1.02655 1.02653 1.0262 1.02611 1.02611 1.02622 1.02654
1.02654 1.02621 1.02611 1.02612 1.02621 1.02654 1.02654 1.02621 1.02612 1.02612
1.02621 1.02654 1.02654 1.02621 1.02611 1.02611 1.02621 1.02654 1.02654 1.02622
1.02611 1.02611 1.0262 1.02653 1.02655 1.02622 1.02612 1.02612 1.02625 1.02671
1.02695 1.02705 1.02678 1.02627 1.02613 1.02612 1.02624 1.02659 1.02658 1.02622
1.02612 1.02612 1.02623 1.02658 1.02658 1.02623 1.02612 1.02612 1.02623 1.02658
1.02658 1.02623 1.02612 1.02612 1.02623 1.02658 1.02658 1.02623 1.02612 1.02612
1.02623 1.02658 1.02658 1.02623 1.02612 1.02612 1.02622 1.02658 1.02659 1.02624
1.02612 1.02613 1.02627 1.02678 1.02705 1.02714 1.02685 1.02629 1.02614 1.02613
1.02625 1.02663 1.02662 1.02624 1.02612 1.02613 1.02624 1.02662 1.02662 1.02625
1.02613 1.02613 1.02625 1.02662 1.02662 1.02624 1.02613 1.02613 1.02624 1.02662
1.02662 1.02625 1.02613 1.02613 1.02625 1.02662 1.02662 1.02624 1.02613 1.02612
1.02623 1.02662 1.02663 1.02625 1.02613 1.02614 1.02629 1.02685 1.02714 1.02722
1.02691 1.02632 1.02614 1.02614 1.02626 1.02666 1.02666 1.02625 1.02613 1.02613
1.02625 1.02664 1.02666 1.02627 1.02614 1.02613 1.02626 1.02666 1.02665 1.02626
1.02613 1.02613 1.02626 1.02665 1.02666 1.02626 1.02613 1.02614 1.02627 1.02666
1.02664 1.02625 1.02613 1.02613 1.02625 1.02665 1.02666 1.02626 1.02614 1.02614
1.02632 1.02691 1.02722 1.0273 1.02697 1.02634 1.02615 1.02614 1.02627 1.02669
1.02669 1.02627 1.02613 1.02613 1.02626 1.02666 1.02668 1.02628 1.02614 1.02614
1.02627 1.02668 1.02669 1.02627 1.02614 1.02614 1.02627 1.02669 1.02668 1.02627
1.02614 1.02614 1.02628 1.02668 1.02666 1.02626 1.02613 1.02613 1.02627 1.02669
1.02669 1.02627 1.02614 1.02615 1.02634 1.02697 1.0273 1.02738 1.02702 1.02636
1.02616 1.02615 1.02628 1.02671 1.02671 1.02628 1.02614 1.02614 1.02627 1.02668
1.02671 1.0263 1.02615 1.02614 1.02628 1.02671 1.02671 1.02629 1.02615 1.02615
1.02629 1.02671 1.02671 1.02628 1.02614 1.02615 1.0263 1.02671 1.02668 1.02627
1.02614 1.02614 1.02628 1.02671 1.02671 1.02628 1.02615 1.02616 1.02636 1.02702
1.02737 1.02745 1.02708 1.02638 1.02617 1.02615 1.02629 1.02673 1.02674 1.0263
1.02615 1.02614 1.02628 1.02671 1.02673 1.02631 1.02615 1.02615 1.02629 1.02672
1.02674 1.0263 1.02615 1.02615 1.0263 1.02674 1.02672 1.02629 1.02615 1.02615
1.02631 1.02673 1.02671 1.02628 1.02614 1.02615 1.0263 1.02674 1.02673 1.02629
1.02615 1.02617 1.02638 1.02707 1.02744 1.02751 1.02712 1.02639 1.02617 1.02616
1.02629 1.02674 1.02676 1.02631 1.02615 1.02615 1.02629 1.02673 1.02675 1.02632
1.02616 1.02615 1.02629 1.02674 1.02676 1.02631 1.02616 1.02616 1.02631 1.02676
1.02674 1.02629 1.02615 1.02616 1.02632 1.02675 1.02673 1.02629 1.02615 1.02615
1.02631 1.02676 1.02674 1.02629 1.02616 1.02618 1.02639 1.02712 1.02751 1.02758
1.02717 1.02642 1.02618 1.02616 1.0263 1.02674 1.02678 1.02633 1.02616 1.02615
1.0263 1.02675 1.02678 1.02633 1.02617 1.02616 1.0263 1.02676 1.02678 1.02633
1.02617 1.02617 1.02633 1.02678 1.02676 1.0263 1.02616 1.02617 1.02633 1.02678
1.02675 1.0263 1.02615 1.02616 1.02633 1.02678 1.02674 1.0263 1.02616 1.02618
1.02641 1.02717 1.02758 1.02764 1.02722 1.02644 1.02619 1.02617 1.0263 1.02675
1.02679 1.02635 1.02617 1.02616 1.02631 1.02677 1.0268 1.02634 1.02617 1.02616
1.02631 1.02678 1.0268 1.02634 1.02617 1.02617 1.02634 1.0268 1.02678 1.02631
1.02616 1.02617 1.02634 1.0268 1.02677 1.02631 1.02616 1.02617 1.02635 1.02679
1.02675 1.0263 1.02617 1.02619 1.02644 1.02722 1.02764 1.0277 1.02727 1.02647
1.0262 1.02617 1.02631 1.02676 1.02681 1.02637 1.02618 1.02617 1.02632 1.0268
1.02682 1.02636 1.02618 1.02617 1.02633 1.02681 1.02682 1.02635 1.02618 1.02618
1.02635 1.02682 1.02681 1.02633 1.02617 1.02618 1.02636 1.02682 1.0268 1.02632
1.02617 1.02618 1.02637 1.02681 1.02676 1.02631 1.02617 1.0262 1.02647 1.02727
1.0277 1.02776 1.02734 1.02653 1.02623 1.02618 1.02633 1.02679 1.02683 1.0264
1.0262 1.02618 1.02634 1.02682 1.02684 1.02638 1.02619 1.02618 1.02635 1.02683
1.02684 1.02637 1.02619 1.02619 1.02637 1.02684 1.02683 1.02635 1.02618 1.02619
1.02638 1.02684 1.02682 1.02634 1.02618 1.0262 1.0264 1.02683 1.02679 1.02633
1.02618 1.02623 1.02653 1.02734 1.02776 1.02784 1.02742 1.0266 1.02625 1.0262
1.02634 1.02682 1.02685 1.02643 1.02621 1.02619 1.02636 1.02685 1.02687 1.0264
1.0262 1.0262 1.02638 1.02686 1.02687 1.0264 1.0262 1.0262 1.0264 1.02687
1.02686 1.02638 1.0262 1.0262 1.0264 1.02687 1.02685 1.02636 1.02619 1.02621
1.02643 1.02685 1.02682 1.02634 1.0262 1.02625 1.0266 1.02742 1.02784 1.02795
1.02758 1.02683 1.02634 1.02624 1.02644 1.02687 1.02691 1.02653 1.02626 1.02623
1.02647 1.0269 1.02691 1.02651 1.02625 1.02624 1.02648 1.02691 1.02692 1.0265
1.02624 1.02624 1.0265 1.02692 1.02691 1.02648 1.02624 1.02625 1.02651 1.02691
1.0269 1.02647 1.02623 1.02626 1.02653 1.02691 1.02687 1.02644 1.02624 1.02634
1.02683 1.02758 1.02794 1.02813 1.02787 1.02726 1.0266 1.0264 1.02665 1.02699