# vtk DataFile Version 2.0
fuel_to_electrolyte
ASCII
DATASET POLYDATA
POINTS 1035 float
0.0035407 0 0 0.0035407 0 0.001 0.0035407 0.0005 0.001 0.0035407 0.0005
0 0.0035407 0.001 0.001 0.0035407 0.001 0 0.0035407 0.0015 0.001
0.0035407 0.0015 0 0.0035407 0.002 0.001 0.0035407 0.002 0 0.0035407
0.0025 0.001 0.0035407 0.0025 0 0.0035407 0.003 0.001 0.0035407 0.003
0 0.0035407 0.0035 0.001 0.0035407 0.0035 0 0.0035407 0.004 0.001
0.0035407 0.004 0 0.0035407 0.0045 0.001 0.0035407 0.0045 0 0.0035407
0.005 0.001 0.0035407 0.005 0 0.0035407 0.0055 0.001 0.0035407 0.0055
0 0.0035407 0.006 0.001 0.0035407 0.006 0 0.0035407 0.0065 0.001
0.0035407 0.0065 0 0.0035407 0.007 0.001 0.0035407 0.007 0 0.0035407
0.0075 0.001 0.0035407 0.0075 0 0.0035407 0.008 0.001 0.0035407 0.008
0 0.0035407 0.0085 0.001 0.0035407 0.0085 0 0.0035407 0.009 0.001
0.0035407 0.009 0 0.0035407 0.0095 0.001 0.0035407 0.0095 0 0.0035407
0.01 0.001 0.0035407 0.01 0 0.0035407 0.0105 0.001 0.0035407 0.0105
0 0.0035407 0.011 0.001 0.0035407 0.011 0 0.0035407 0.0115 0.001
0.0035407 0.0115 0 0.0035407 0.012 0.001 0.0035407 0.012 0 0.0035407
0.0125 0.001 0.0035407 0.0125 0 0.0035407 0.013 0.001 0.0035407 0.013
0 0.0035407 0.0135 0.001 0.0035407 0.0135 0 0.0035407 0.014 0.001
0.0035407 0.014 0 0.0035407 0.0145 0.001 0.0035407 0.0145 0 0.0035407
0.015 0.001 0.0035407 0.015 0 0.0035407 0.0155 0.001 0.0035407 0.0155
0 0.0035407 0.016 0.001 0.0035407 0.016 0 0.0035407 0.0165 0.001
0.0035407 0.0165 0 0.0035407 0.017 0.001 0.0035407 0.017 0 0.0035407
0.0175 0.001 0.0035407 0.0175 0 0.0035407 0.018 0.001 0.0035407 0.018
0 0.0035407 0.0185 0.001 0.0035407 0.0185 0 0.0035407 0.019 0.001
0.0035407 0.019 0 0.0035407 0.0195 0.001 0.0035407 0.0195 0 0.0035407
0.02 0.001 0.0035407 0.02 0 0.0035407 0.0205 0.001 0.0035407 0.0205
0 0.0035407 0.021 0.001 0.0035407 0.021 0 0.0035407 0.0215 0.001
0.0035407 0.0215 0 0.0035407 0.022 0.001 0.0035407 0.022 0 0.0035407
0 0.002 0.0035407 0.0005 0.002 0.0035407 0.001 0.002 0.0035407 0.0015
0.002 0.0035407 0.002 0.002 0.0035407 0.0025 0.002 0.0035407 0.003 0.002
0.0035407 0.0035 0.002 0.0035407 0.004 0.002 0.0035407 0.0045 0.002 0.0035407
0.005 0.002 0.0035407 0.0055 0.002 0.0035407 0.006 0.002 0.0035407 0.0065
0.002 0.0035407 0.007 0.002 0.0035407 0.0075 0.002 0.0035407 0.008 0.002
0.0035407 0.0085 0.002 0.0035407 0.009 0.002 0.0035407 0.0095 0.002 0.0035407
0.01 0.002 0.0035407 0.0105 0.002 0.0035407 0.011 0.002 0.0035407 0.0115
0.002 0.0035407 0.012 0.002 0.0035407 0.0125 0.002 0.0035407 0.013 0.002
0.0035407 0.0135 0.002 0.0035407 0.014 0.002 0.0035407 0.0145 0.002 0.0035407
0.015 0.002 0.0035407 0.0155 0.002 0.0035407 0.016 0.002 0.0035407 0.0165
0.002 0.0035407 0.017 0.002 0.0035407 0.0175 0.002 0.0035407 0.018 0.002
0.0035407 0.0185 0.002 0.0035407 0.019 0.002 0.0035407 0.0195 0.002 0.0035407
0.02 0.002 0.0035407 0.0205 0.002 0.0035407 0.021 0.002 0.0035407 0.0215
0.002 0.0035407 0.022 0.002 0.0035407 0 0.003 0.0035407 0.0005 0.003
0.0035407 0.001 0.003 0.0035407 0.0015 0.003 0.0035407 0.002 0.003 0.0035407
0.0025 0.003 0.0035407 0.003 0.003 0.0035407 0.0035 0.003 0.0035407 0.004
0.003 0.0035407 0.0045 0.003 0.0035407 0.005 0.003 0.0035407 0.0055 0.003
0.0035407 0.006 0.003 0.0035407 0.0065 0.003 0.0035407 0.007 0.003 0.0035407
0.0075 0.003 0.0035407 0.008 0.003 0.0035407 0.0085 0.003 0.0035407 0.009
0.003 0.0035407 0.0095 0.003 0.0035407 0.01 0.003 0.0035407 0.0105 0.003
0.0035407 0.011 0.003 0.0035407 0.0115 0.003 0.0035407 0.012 0.003 0.0035407
0.0125 0.003 0.0035407 0.013 0.003 0.0035407 0.0135 0.003 0.0035407 0.014
0.003 0.0035407 0.0145 0.003 0.0035407 0.015 0.003 0.0035407 0.0155 0.003
0.0035407 0.016 0.003 0.0035407 0.0165 0.003 0.0035407 0.017 0.003 0.0035407
0.0175 0.003 0.0035407 0.018 0.003 0.0035407 0.0185 0.003 0.0035407 0.019
0.003 0.0035407 0.0195 0.003 0.0035407 0.02 0.003 0.0035407 0.0205 0.003
0.0035407 0.021 0.003 0.0035407 0.0215 0.003 0.0035407 0.022 0.003 0.0035407
0 0.004 0.0035407 0.0005 0.004 0.0035407 0.001 0.004 0.0035407 0.0015
0.004 0.0035407 0.002 0.004 0.0035407 0.0025 0.004 0.0035407 0.003 0.004
0.0035407 0.0035 0.004 0.0035407 0.004 0.004 0.0035407 0.0045 0.004 0.0035407
0.005 0.004 0.0035407 0.0055 0.004 0.0035407 0.006 0.004 0.0035407 0.0065
0.004 0.0035407 0.007 0.004 0.0035407 0.0075 0.004 0.0035407 0.008 0.004
0.0035407 0.0085 0.004 0.0035407 0.009 0.004 0.0035407 0.0095 0.004 0.0035407
0.01 0.004 0.0035407 0.0105 0.004 0.0035407 0.011 0.004 0.0035407 0.0115
0.004 0.0035407 0.012 0.004 0.0035407 0.0125 0.004 0.0035407 0.013 0.004
0.0035407 0.0135 0.004 0.0035407 0.014 0.004 0.0035407 0.0145 0.004 0.0035407
0.015 0.004 0.0035407 0.0155 0.004 0.0035407 0.016 0.004 0.0035407 0.0165
0.004 0.0035407 0.017 0.004 0.0035407 0.0175 0.004 0.0035407 0.018 0.004
0.0035407 0.0185 0.004 0.0035407 0.019 0.004 0.0035407 0.0195 0.004 0.0035407
0.02 0.004 0.0035407 0.0205 0.004 0.0035407 0.021 0.004 0.0035407 0.0215
0.004 0.0035407 0.022 0.004 0.0035407 0 0.005 0.0035407 0.0005 0.005
0.0035407 0.001 0.005 0.0035407 0.0015 0.005 0.0035407 0.002 0.005 0.0035407
0.0025 0.005 0.0035407 0.003 0.005 0.0035407 0.0035 0.005 0.0035407 0.004
0.005 0.0035407 0.0045 0.005 0.0035407 0.005 0.005 0.0035407 0.0055 0.005
0.0035407 0.006 0.005 0.0035407 0.0065 0.005 0.0035407 0.007 0.005 0.0035407
0.0075 0.005 0.0035407 0.008 0.005 0.0035407 0.0085 0.005 0.0035407 0.009
0.005 0.0035407 0.0095 0.005 0.0035407 0.01 0.005 0.0035407 0.0105 0.005
0.0035407 0.011 0.005 0.0035407 0.0115 0.005 0.0035407 0.012 0.005 0.0035407
0.0125 0.005 0.0035407 0.013 0.005 0.0035407 0.0135 0.005 0.0035407 0.014
0.005 0.0035407 0.0145 0.005 0.0035407 0.015 0.005 0.0035407 0.0155 0.005
0.0035407 0.016 0.005 0.0035407 0.0165 0.005 0.0035407 0.017 0.005 0.0035407
0.0175 0.005 0.0035407 0.018 0.005 0.0035407 0.0185 0.005 0.0035407 0.019
0.005 0.0035407 0.0195 0.005 0.0035407 0.02 0.005 0.0035407 0.0205 0.005
0.0035407 0.021 0.005 0.0035407 0.0215 0.005 0.0035407 0.022 0.005 0.0035407
0 0.006 0.0035407 0.0005 0.006 0.0035407 0.001 0.006 0.0035407 0.0015
0.006 0.0035407 0.002 0.006 0.0035407 0.0025 0.006 0.0035407 0.003 0.006
0.0035407 0.0035 0.006 0.0035407 0.004 0.006 0.0035407 0.0045 0.006 0.0035407
0.005 0.006 0.0035407 0.0055 0.006 0.0035407 0.006 0.006 0.0035407 0.0065
0.006 0.0035407 0.007 0.006 0.0035407 0.0075 0.006 0.0035407 0.008 0.006
0.0035407 0.0085 0.006 0.0035407 0.009 0.006 0.0035407 0.0095 0.006 0.0035407
0.01 0.006 0.0035407 0.0105 0.006 0.0035407 0.011 0.006 0.0035407 0.0115
0.006 0.0035407 0.012 0.006 0.0035407 0.0125 0.006 0.0035407 0.013 0.006
0.0035407 0.0135 0.006 0.0035407 0.014 0.006 0.0035407 0.0145 0.006 0.0035407
0.015 0.006 0.0035407 0.0155 0.006 0.0035407 0.016 0.006 0.0035407 0.0165
0.006 0.0035407 0.017 0.006 0.0035407 0.0175 0.006 0.0035407 0.018 0.006
0.0035407 0.0185 0.006 0.0035407 0.019 0.006 0.0035407 0.0195 0.006 0.0035407
0.02 0.006 0.0035407 0.0205 0.006 0.0035407 0.021 0.006 0.0035407 0.0215
0.006 0.0035407 0.022 0.006 0.0035407 0 0.007 0.0035407 0.0005 0.007
0.0035407 0.001 0.007 0.0035407 0.0015 0.007 0.0035407 0.002 0.007 0.0035407
0.0025 0.007 0.0035407 0.003 0.007 0.0035407 0.0035 0.007 0.0035407 0.004
0.007 0.0035407 0.0045 0.007 0.0035407 0.005 0.007 0.0035407 0.0055 0.007
0.0035407 0.006 0.007 0.0035407 0.0065 0.007 0.0035407 0.007 0.007 0.0035407
0.0075 0.007 0.0035407 0.008 0.007 0.0035407 0.0085 0.007 0.0035407 0.009
0.007 0.0035407 0.0095 0.007 0.0035407 0.01 0.007 0.0035407 0.0105 0.007
0.0035407 0.011 0.007 0.0035407 0.0115 0.007 0.0035407 0.012 0.007 0.0035407
0.0125 0.007 0.0035407 0.013 0.007 0.0035407 0.0135 0.007 0.0035407 0.014
0.007 0.0035407 0.0145 0.007 0.0035407 0.015 0.007 0.0035407 0.0155 0.007
0.0035407 0.016 0.007 0.0035407 0.0165 0.007 0.0035407 0.017 0.007 0.0035407
0.0175 0.007 0.0035407 0.018 0.007 0.0035407 0.0185 0.007 0.0035407 0.019
0.007 0.0035407 0.0195 0.007 0.0035407 0.02 0.007 0.0035407 0.0205 0.007
0.0035407 0.021 0.007 0.0035407 0.0215 0.007 0.0035407 0.022 0.007 0.0035407
0 0.008 0.0035407 0.0005 0.008 0.0035407 0.001 0.008 0.0035407 0.0015
0.008 0.0035407 0.002 0.008 0.0035407 0.0025 0.008 0.0035407 0.003 0.008
0.0035407 0.0035 0.008 0.0035407 0.004 0.008 0.0035407 0.0045 0.008 0.0035407
0.005 0.008 0.0035407 0.0055 0.008 0.0035407 0.006 0.008 0.0035407 0.0065
0.008 0.0035407 0.007 0.008 0.0035407 0.0075 0.008 0.0035407 0.008 0.008
0.0035407 0.0085 0.008 0.0035407 0.009 0.008 0.0035407 0.0095 0.008 0.0035407
0.01 0.008 0.0035407 0.0105 0.008 0.0035407 0.011 0.008 0.0035407 0.0115
0.008 0.0035407 0.012 0.008 0.0035407 0.0125 0.008 0.0035407 0.013 0.008
0.0035407 0.0135 0.008 0.0035407 0.014 0.008 0.0035407 0.0145 0.008 0.0035407
0.015 0.008 0.0035407 0.0155 0.008 0.0035407 0.016 0.008 0.0035407 0.0165
0.008 0.0035407 0.017 0.008 0.0035407 0.0175 0.008 0.0035407 0.018 0.008
0.0035407 0.0185 0.008 0.0035407 0.019 0.008 0.0035407 0.0195 0.008 0.0035407
0.02 0.008 0.0035407 0.0205 0.008 0.0035407 0.021 0.008 0.0035407 0.0215
0.008 0.0035407 0.022 0.008 0.0035407 0 0.009 0.0035407 0.0005 0.009
0.0035407 0.001 0.009 0.0035407 0.0015 0.009 0.0035407 0.002 0.009 0.0035407
0.0025 0.009 0.0035407 0.003 0.009 0.0035407 0.0035 0.009 0.0035407 0.004
0.009 0.0035407 0.0045 0.009 0.0035407 0.005 0.009 0.0035407 0.0055 0.009
0.0035407 0.006 0.009 0.0035407 0.0065 0.009 0.0035407 0.007 0.009 0.0035407
0.0075 0.009 0.0035407 0.008 0.009 0.0035407 0.0085 0.009 0.0035407 0.009
0.009 0.0035407 0.0095 0.009 0.0035407 0.01 0.009 0.0035407 0.0105 0.009
0.0035407 0.011 0.009 0.0035407 0.0115 0.009 0.0035407 0.012 0.009 0.0035407
0.0125 0.009 0.0035407 0.013 0.009 0.0035407 0.0135 0.009 0.0035407 0.014
0.009 0.0035407 0.0145 0.009 0.0035407 0.015 0.009 0.0035407 0.0155 0.009
0.0035407 0.016 0.009 0.0035407 0.0165 0.009 0.0035407 0.017 0.009 0.0035407
0.0175 0.009 0.0035407 0.018 0.009 0.0035407 0.0185 0.009 0.0035407 0.019
0.009 0.0035407 0.0195 0.009 0.0035407 0.02 0.009 0.0035407 0.0205 0.009
0.0035407 0.021 0.009 0.0035407 0.0215 0.009 0.0035407 0.022 0.009 0.0035407
[...]
CELL_DATA 968
FIELD attributes 16
patchID 1 968 float
4 4 4 4 4 4 4 4 4 4 4
4 4 4 4 4 4 4 4 4 4
4 4 4 4 4 4 4 4 4 4
4 4 4 4 4 4 4 4 4 4
4 4 4 4 4 4 4 4 4 4
4 4 4 4 4 4 4 4 4 4
4 4 4 4 4 4 4 4 4 4
4 4 4 4 4 4 4 4 4 4
4 4 4 4 4 4 4 4 4 4
4 4 4 4 4 4 4 4 4 4
4 4 4 4 4 4 4 4 4 4
4 4 4 4 4 4 4 4 4 4
4 4 4 4 4 4 4 4 4 4
4 4 4 4 4 4 4 4 4 4
4 4 4 4 4 4 4 4 4 4
4 4 4 4 4 4 4 4 4 4
4 4 4 4 4 4 4 4 4 4
4 4 4 4 4 4 4 4 4 4
4 4 4 4 4 4 4 4 4 4
4 4 4 4 4 4 4 4 4 4
4 4 4 4 4 4 4 4 4 4
4 4 4 4 4 4 4 4 4 4
4 4 4 4 4 4 4 4 4 4
4 4 4 4 4 4 4 4 4 4
4 4 4 4 4 4 4 4 4 4
4 4 4 4 4 4 4 4 4 4
4 4 4 4 4 4 4 4 4 4
4 4 4 4 4 4 4 4 4 4
4 4 4 4 4 4 4 4 4 4
4 4 4 4 4 4 4 4 4 4
4 4 4 4 4 4 4 4 4 4
4 4 4 4 4 4 4 4 4 4
4 4 4 4 4 4 4 4 4 4
4 4 4 4 4 4 4 4 4 4
4 4 4 4 4 4 4 4 4 4
4 4 4 4 4 4 4 4 4 4
4 4 4 4 4 4 4 4 4 4
4 4 4 4 4 4 4 4 4 4
4 4 4 4 4 4 4 4 4 4
4 4 4 4 4 4 4 4 4 4
4 4 4 4 4 4 4 4 4 4
4 4 4 4 4 4 4 4 4 4
4 4 4 4 4 4 4 4 4 4
4 4 4 4 4 4 4 4 4 4
4 4 4 4 4 4 4 4 4 4
4 4 4 4 4 4 4 4 4 4
4 4 4 4 4 4 4 4 4 4
4 4 4 4 4 4 4 4 4 4
4 4 4 4 4 4 4 4 4 4
4 4 4 4 4 4 4 4 4 4
4 4 4 4 4 4 4 4 4 4
4 4 4 4 4 4 4 4 4 4
4 4 4 4 4 4 4 4 4 4
4 4 4 4 4 4 4 4 4 4
4 4 4 4 4 4 4 4 4 4
4 4 4 4 4 4 4 4 4 4
4 4 4 4 4 4 4 4 4 4
4 4 4 4 4 4 4 4 4 4
4 4 4 4 4 4 4 4 4 4
4 4 4 4 4 4 4 4 4 4
4 4 4 4 4 4 4 4 4 4
4 4 4 4 4 4 4 4 4 4
4 4 4 4 4 4 4 4 4 4
4 4 4 4 4 4 4 4 4 4
4 4 4 4 4 4 4 4 4 4
4 4 4 4 4 4 4 4 4 4
4 4 4 4 4 4 4 4 4 4
4 4 4 4 4 4 4 4 4 4
4 4 4 4 4 4 4 4 4 4
4 4 4 4 4 4 4 4 4 4
4 4 4 4 4 4 4 4 4 4
4 4 4 4 4 4 4 4 4 4
4 4 4 4 4 4 4 4 4 4
4 4 4 4 4 4 4 4 4 4
4 4 4 4 4 4 4 4 4 4
4 4 4 4 4 4 4 4 4 4
4 4 4 4 4 4 4 4 4 4
4 4 4 4 4 4 4 4 4 4
4 4 4 4 4 4 4 4 4 4
4 4 4 4 4 4 4 4 4 4
4 4 4 4 4 4 4 4 4 4
4 4 4 4 4 4 4 4 4 4
4 4 4 4 4 4 4 4 4 4
4 4 4 4 4 4 4 4 4 4
4 4 4 4 4 4 4 4 4 4
4 4 4 4 4 4 4 4 4 4
4 4 4 4 4 4 4 4 4 4
4 4 4 4 4 4 4 4 4 4
4 4 4 4 4 4 4 4 4 4
4 4 4 4 4 4 4 4 4 4
4 4 4 4 4 4 4 4 4 4
4 4 4 4 4 4 4 4 4 4
4 4 4 4 4 4 4 4 4 4
4 4 4 4 4 4 4 4 4 4
4 4 4 4 4 4 4 4 4 4
4 4 4 4 4 4 4 4 4 4
4 4 4 4 4 4 4 
diffH2Ofuel 1 968 float
0 0 0 0 0 0 0 0 0 0 0
0 0 0 0 0 0 0 0 0 0
0 0 0 0 0 0 0 0 0 0
0 0 0 0 0 0 0 0 0 0
0 0 0 0 0 0 0 0 0 0
0 0 0 0 0 0 0 0 0 0
0 0 0 0 0 0 0 0 0 0
0 0 0 0 0 0 0 0 0 0
0 0 0 0 0 0 0 0 0 0
0 0 0 0 0 0 0 0 0 0
0 0 0 0 0 0 0 0 0 0
0 0 0 0 0 0 0 0 0 0
0 0 0 0 0 0 0 0 0 0
0 0 0 0 0 0 0 0 0 0
0 0 0 0 0 0 0 0 0 0
0 0 0 0 0 0 0 0 0 0
0 0 0 0 0 0 0 0 0 0
0 0 0 0 0 0 0 0 0 0
0 0 0 0 0 0 0 0 0 0
0 0 0 0 0 0 0 0 0 0
0 0 0 0 0 0 0 0 0 0
0 0 0 0 0 0 0 0 0 0
0 0 0 0 0 0 0 0 0 0
0 0 0 0 0 0 0 0 0 0
0 0 0 0 0 0 0 0 0 0
0 0 0 0 0 0 0 0 0 0
0 0 0 0 0 0 0 0 0 0
0 0 0 0 0 0 0 0 0 0
0 0 0 0 0 0 0 0 0 0
0 0 0 0 0 0 0 0 0 0
0 0 0 0 0 0 0 0 0 0
0 0 0 0 0 0 0 0 0 0
0 0 0 0 0 0 0 0 0 0
0 0 0 0 0 0 0 0 0 0
0 0 0 0 0 0 0 0 0 0
0 0 0 0 0 0 0 0 0 0
0 0 0 0 0 0 0 0 0 0
0 0 0 0 0 0 0 0 0 0
0 0 0 0 0 0 0 0 0 0
0 0 0 0 0 0 0 0 0 0
0 0 0 0 0 0 0 0 0 0
0 0 0 0 0 0 0 0 0 0
0 0 0 0 0 0 0 0 0 0
0 0 0 0 0 0 0 0 0 0
0 0 0 0 0 0 0 0 0 0
0 0 0 0 0 0 0 0 0 0
0 0 0 0 0 0 0 0 0 0
0 0 0 0 0 0 0 0 0 0
0 0 0 0 0 0 0 0 0 0
0 0 0 0 0 0 0 0 0 0
0 0 0 0 0 0 0 0 0 0
0 0 0 0 0 0 0 0 0 0
0 0 0 0 0 0 0 0 0 0
0 0 0 0 0 0 0 0 0 0
0 0 0 0 0 0 0 0 0 0
0 0 0 0 0 0 0 0 0 0
0 0 0 0 0 0 0 0 0 0
0 0 0 0 0 0 0 0 0 0
0 0 0 0 0 0 0 0 0 0
0 0 0 0 0 0 0 0 0 0
0 0 0 0 0 0 0 0 0 0
0 0 0 0 0 0 0 0 0 0
0 0 0 0 0 0 0 0 0 0
0 0 0 0 0 0 0 0 0 0
0 0 0 0 0 0 0 0 0 0
0 0 0 0 0 0 0 0 0 0
0 0 0 0 0 0 0 0 0 0
0 0 0 0 0 0 0 0 0 0
0 0 0 0 0 0 0 0 0 0
0 0 0 0 0 0 0 0 0 0
0 0 0 0 0 0 0 0 0 0
0 0 0 0 0 0 0 0 0 0
0 0 0 0 0 0 0 0 0 0
0 0 0 0 0 0 0 0 0 0
0 0 0 0 0 0 0 0 0 0
0 0 0 0 0 0 0 0 0 0
0 0 0 0 0 0 0 0 0 0
0 0 0 0 0 0 0 0 0 0
0 0 0 0 0 0 0 0 0 0
0 0 0 0 0 0 0 0 0 0
0 0 0 0 0 0 0 0 0 0
0 0 0 0 0 0 0 0 0 0
0 0 0 0 0 0 0 0 0 0
0 0 0 0 0 0 0 0 0 0
0 0 0 0 0 0 0 0 0 0
0 0 0 0 0 0 0 0 0 0
0 0 0 0 0 0 0 0 0 0
0 0 0 0 0 0 0 0 0 0
0 0 0 0 0 0 0 0 0 0
0 0 0 0 0 0 0 0 0 0
0 0 0 0 0 0 0 0 0 0
0 0 0 0 0 0 0 0 0 0
0 0 0 0 0 0 0 0 0 0
0 0 0 0 0 0 0 0 0 0
0 0 0 0 0 0 0 0 0 0
0 0 0 0 0 0 0 0 0 0
0 0 0 0 0 0 0 
XCH3OHfuel 1 968 float
0.83297 0.832844 0.83265 0.832585 0.832689 0.83274 0.83297 0.832987 0.832803 0.833026 0.833045
0.832932 0.833098 0.833072 0.832888 0.833094 0.833071 0.832929 0.8331 0.833091 0.832915
0.833079 0.833076 0.832914 0.833091 0.833099 0.832928 0.83307 0.833094 0.832891 0.833074
0.833098 0.832932 0.833044 0.833026 0.832803 0.832987 0.832971 0.832741 0.83269 0.832587
0.832651 0.832845 0.832971 0.833162 0.83351 0.833772 0.833824 0.833777 0.833792 0.833412
0.833569 0.83388 0.833926 0.833933 0.833901 0.833563 0.833574 0.833898 0.833941 0.833941
0.833904 0.833575 0.833576 0.833902 0.833943 0.833942 0.833902 0.833575 0.833575 0.833904
0.833941 0.83394 0.833899 0.833575 0.833563 0.833901 0.833934 0.833925 0.83388 0.833569
0.833413 0.833793 0.833778 0.833825 0.833772 0.833509 0.833163 0.833335 0.833618 0.833841
0.833769 0.833629 0.833702 0.833408 0.83356 0.833822 0.833781 0.833765 0.833823 0.833533
0.833535 0.833819 0.833782 0.833774 0.833829 0.833541 0.833543 0.833825 0.833779 0.833779
0.833825 0.833543 0.833541 0.833829 0.833774 0.833781 0.833821 0.833535 0.833534 0.833823
0.833765 0.833781 0.833822 0.83356 0.833409 0.833702 0.833629 0.83377 0.833841 0.833618
0.833335 0.833352 0.833554 0.833791 0.833688 0.833483 0.833601 0.833285 0.833448 0.833722
0.833643 0.833619 0.833712 0.833396 0.833437 0.833717 0.833634 0.833625 0.833721 0.833422
0.833431 0.833718 0.833627 0.833626 0.833717 0.83343 0.833422 0.833721 0.833624 0.833634
0.833718 0.833438 0.833396 0.833711 0.833619 0.833643 0.833721 0.833447 0.833285 0.833601
0.833483 0.833688 0.833791 0.833554 0.833352 0.833229 0.833476 0.833701 0.83358 0.833354
0.833463 0.833183 0.833346 0.833601 0.833512 0.833485 0.833565 0.83329 0.833345 0.833595
0.833501 0.833492 0.833587 0.833316 0.833331 0.833591 0.833494 0.833493 0.83359 0.83333
0.833317 0.833587 0.833492 0.833501 0.833595 0.833345 0.83329 0.833565 0.833485 0.833511
0.833601 0.833345 0.833182 0.833463 0.833354 0.833579 0.8337 0.833475 0.833228 0.833129
0.833395 0.833593 0.833478 0.833241 0.833352 0.833059 0.833253 0.833493 0.833398 0.833365
0.833444 0.833176 0.833247 0.833485 0.833384 0.833373 0.833472 0.833207 0.833225 0.833479
0.833376 0.833376 0.833478 0.833224 0.833207 0.833472 0.833372 0.833384 0.833485 0.833246
0.833176 0.833445 0.833364 0.833398 0.833493 0.833254 0.83306 0.833352 0.833242 0.83348
0.833595 0.833397 0.833131 0.833031 0.83332 0.83349 0.833385 0.833142 0.833244 0.832954
0.833171 0.833388 0.833296 0.833254 0.833337 0.833067 0.833143 0.833378 0.833277 0.833263
0.833365 0.833103 0.833118 0.833368 0.833268 0.833267 0.833367 0.833117 0.833103 0.833367
0.833264 0.833277 0.833378 0.833142 0.833069 0.833338 0.833254 0.833295 0.833388 0.833172
0.832955 0.833243 0.833142 0.833385 0.83349 0.83332 0.833031 0.832933 0.833248 0.833388
0.833292 0.833055 0.833141 0.832853 0.833086 0.833288 0.833198 0.833151 0.833243 0.832968
0.833032 0.833276 0.833179 0.833165 0.833277 0.833008 0.83301 0.833264 0.83317 0.83317
0.833263 0.833009 0.833009 0.833278 0.833165 0.833179 0.833275 0.833032 0.832968 0.833244
0.833151 0.833198 0.833288 0.833088 0.832853 0.83314 0.833055 0.833292 0.833388 0.833248
0.832932 0.832834 0.833176 0.833291 0.833203 0.832977 0.833048 0.832761 0.833001 0.833196
0.833107 0.83306 0.833161 0.83288 0.832929 0.833178 0.833087 0.833077 0.833197 0.832917
0.832903 0.833171 0.83308 0.833079 0.83317 0.832902 0.832918 0.833197 0.833076 0.833087
0.833179 0.83293 0.832879 0.833161 0.83306 0.833106 0.833196 0.833001 0.832762 0.833048
0.832977 0.833203 0.833291 0.833176 0.832834 0.832735 0.833098 0.833196 0.833115 0.832904
0.832959 0.832677 0.832916 0.833112 0.833018 0.832975 0.833082 0.832796 0.832838 0.833087
0.833001 0.832994 0.833117 0.832824 0.832819 0.833091 0.832999 0.832998 0.83309 0.832818
0.832826 0.833118 0.832994 0.833 0.833088 0.832839 0.832796 0.833082 0.832976 0.833017
0.833111 0.832914 0.832676 0.832958 0.832903 0.833113 0.833194 0.833097 0.832733 0.832638
0.833006 0.833103 0.833028 0.832837 0.832877 0.832601 0.832832 0.833043 0.832938 0.8329
0.833009 0.832723 0.832757 0.833003 0.83292 0.832915 0.833029 0.832736 0.832755 0.833024
0.832922 0.832921 0.833022 0.832754 0.832738 0.833031 0.832915 0.83292 0.833004 0.832756
0.83272 0.833007 0.832899 0.832937 0.833043 0.832832 0.832601 0.832876 0.832838 0.833029
0.833104 0.833008 0.83264 0.832548 0.832909 0.833015 0.832947 0.832776 0.832804 0.832534
0.832748 0.832981 0.832867 0.832829 0.832933 0.832656 0.832679 0.83292 0.832843 0.832834
0.832931 0.832656 0.832699 0.832959 0.832846 0.832845 0.832957 0.832697 0.832657 0.832934
0.832835 0.832843 0.832922 0.832679 0.832655 0.832933 0.83283 0.832867 0.832982 0.832749
0.832534 0.832803 0.832776 0.832947 0.833015 0.83291 0.832548 0.83246 0.832811 0.83293
0.832865 0.832713 0.832745 0.832485 0.832652 0.832893 0.832793 0.832762 0.832863 0.8326
0.8326 0.832826 0.832764 0.832755 0.832834 0.832581 0.832636 0.832892 0.832774 0.832773
0.83289 0.832633 0.832581 0.832836 0.832755 0.832764 0.832826 0.8326 0.832601 0.832864
0.832762 0.832793 0.832894 0.832652 0.832484 0.832744 0.832713 0.832866 0.832931 0.832812
0.83246 0.83238 0.832721 0.832852 0.832786 0.832655 0.832711 0.832465 0.832558 0.832774
0.832712 0.832703 0.832817 0.832565 0.832527 0.832711 0.83268 0.83268 0.832748 0.832502
0.832559 0.832816 0.8327 0.8327 0.832814 0.832557 0.832502 0.832749 0.832679 0.832679
0.83271 0.832527 0.832568 0.832819 0.832703 0.832712 0.832775 0.832558 0.832465 0.832709
0.832655 0.832787 0.832853 0.832722 0.83238 0.832299 0.832631 0.832765 0.832698 0.832595
0.832672 0.832448 0.832475 0.832639 0.832621 0.83265 0.832793 0.832543 0.832457 0.832591
0.832595 0.832611 0.832679 0.83243 0.83248 0.832727 0.832629 0.832628 0.832725 0.832479
0.83243 0.832681 0.832612 0.832594 0.832589 0.83246 0.832547 0.832796 0.832652 0.832621
0.832639 0.832475 0.832447 0.832671 0.832595 0.832697 0.832763 0.832629 0.832296 0.832216
0.832529 0.832662 0.832609 0.832536 0.832618 0.832404 0.832398 0.832517 0.832538 0.832603
0.832758 0.832497 0.832382 0.832493 0.832519 0.832553 0.832623 0.832371 0.832401 0.832628
0.832559 0.832559 0.832626 0.832399 0.832372 0.832624 0.832553 0.832519 0.832491 0.832382
0.832497 0.832758 0.832602 0.832538 0.832516 0.832398 0.832404 0.832617 0.832537 0.832611
0.832662 0.83253 0.832217 0.832136 0.832421 0.832548 0.832523 0.83247 0.832544 0.832342
0.832325 0.832407 0.832451 0.832533 0.832654 0.832409 0.832306 0.832419 0.832448 0.832485
0.832557 0.832315 0.832324 0.832521 0.832483 0.832482 0.832519 0.832323 0.832316 0.83256
0.832487 0.832448 0.832417 0.832307 0.832411 0.832654 0.832533 0.832451 0.832407 0.832325
0.832342 0.832543 0.83247 0.832523 0.832547 0.832422 0.832136 0.832048 0.832307 0.832429
0.832436 0.832399 0.832448 0.832263 0.832241 0.832309 0.832365 0.832443 0.832497 0.832312
0.832248 0.832359 0.832383 0.832415 0.832475 0.832248 0.832245 0.832419 0.832405 0.832405
0.832416 0.832244 0.832249 0.832477 0.832415 0.832383 0.832358 0.832249 0.832313 0.832498
0.832442 0.832365 0.832309 0.832241 0.832263 0.832447 0.8324 0.832437 0.83243 0.832308
0.832048 0.831955 0.832201 0.832295 0.832328 0.832305 0.832342 0.832184 0.832158 0.832195
0.832261 0.832321 0.832319 0.832222 0.832202 0.832297 0.832299 0.832314 0.832367 0.832178
0.832169 0.83229 0.832299 0.832298 0.832286 0.832168 0.83218 0.832368 0.832315 0.832298
0.832294 0.832201 0.832223 0.832321 0.832321 0.832262 0.832196 0.832158 0.832183 0.83234
0.832305 0.832328 0.832296 0.832202 0.831955 0.83185 0.832056 0.832131 0.832193 0.832183
0.832194 0.832079 0.832063 0.832055 0.832126 0.83216 0.832127 0.832121 0.832117 0.832192
0.832194 0.832202 0.832229 0.832088 0.832076 0.832125 0.832155 0.832155 0.832121 0.832075
0.83209 0.832231 0.832204 0.832196 0.83219 0.832119 0.832124 0.832131 0.832164 0.832128
0.832057 0.832063 0.832079 0.832191 0.832181 0.832191 0.832129 0.832055 0.831848 0.831736
0.831922 0.831941 0.832018 0.832019 0.83199 0.832002 0.83201 0.831921 0.831977 0.83198
0.831922 0.83205 0.832067 0.832058 0.832055 0.832057 0.832062 0.832029 0.832005 0.831939
0.831979 0.831977 0.831935 0.832004 0.832031 0.832065 0.832058 0.832056 0.832054 0.832065
0.832049 0.831924 0.831982 0.831979 0.831922 0.832009 0.832002 0.831988 0.832018 0.832019
0.831944 0.831925 0.831737 0.83166 0.831705 0.831563 0.831598 0.831607 0.831716 0.831964
0.831961 0.83169 0.8316 0.831561 0.831696 0.83202 0.831993 0.83176 0.831683 0.831668
0.831723 0.83195 0.831946 0.831681 0.831578 0.831574 0.831679 0.831945 0.831954 0.831728
0.831671 0.831683 0.831759 0.831992 0.832021 0.831699 0.831565 0.8316 0.831689 0.83196
0.831962 0.831713 0.831605 0.831599 0.831564 0.831706 0.831661 
rho 1 968 float
1.02724 1.02728 1.02741 1.02749 1.02748 1.02742 1.02728 1.02726 1.02739 1.02735 1.02735
1.02734 1.02723 1.02724 1.02737 1.02733 1.02734 1.02735 1.02724 1.02724 1.02736
1.02734 1.02734 1.02736 1.02724 1.02724 1.02735 1.02734 1.02733 1.02737 1.02724
1.02723 1.02734 1.02735 1.02735 1.02739 1.02726 1.02728 1.02742 1.02748 1.02749
1.02741 1.02728 1.02724 1.02719 1.02703 1.0271 1.02715 1.02719 1.02716 1.02723
1.02715 1.02715 1.02718 1.02718 1.02715 1.02719 1.02718 1.02716 1.02719 1.02719
1.02716 1.02719 1.02719 1.02716 1.02719 1.02719 1.02716 1.02719 1.02719 1.02716
1.02719 1.02719 1.02716 1.02718 1.02719 1.02715 1.02718 1.02718 1.02715 1.02715
1.02723 1.02716 1.02719 1.02715 1.0271 1.02703 1.02719 1.02728 1.02716 1.02721
1.02724 1.0273 1.02725 1.02732 1.02726 1.02724 1.02726 1.02726 1.02724 1.02729
1.02728 1.02724 1.02726 1.02727 1.02724 1.02729 1.02729 1.02724 1.02727 1.02727
1.02724 1.02728 1.02729 1.02724 1.02727 1.02726 1.02724 1.02728 1.02728 1.02724
1.02726 1.02726 1.02724 1.02726 1.02732 1.02725 1.0273 1.02724 1.02721 1.02716
1.02728 1.02731 1.02725 1.02722 1.02726 1.02733 1.02726 1.02734 1.02727 1.02723
1.02727 1.02728 1.02723 1.0273 1.02728 1.02723 1.02728 1.02728 1.02723 1.02729
1.02729 1.02723 1.02728 1.02728 1.02723 1.02729 1.02729 1.02723 1.02728 1.02728
1.02723 1.02728 1.0273 1.02723 1.02728 1.02727 1.02723 1.02727 1.02734 1.02726
1.02733 1.02726 1.02722 1.02725 1.02731 1.02733 1.02726 1.02722 1.02727 1.02735
1.02728 1.02735 1.0273 1.02724 1.02729 1.0273 1.02725 1.02732 1.0273 1.02724
1.02729 1.0273 1.02724 1.02731 1.02731 1.02724 1.0273 1.0273 1.02724 1.02731
1.02731 1.02724 1.0273 1.02729 1.02724 1.0273 1.02732 1.02725 1.0273 1.02729
1.02724 1.0273 1.02735 1.02728 1.02735 1.02727 1.02722 1.02726 1.02733 1.02734
1.02726 1.02722 1.02728 1.02735 1.02728 1.02736 1.02729 1.02724 1.02729 1.0273
1.02725 1.02732 1.02729 1.02724 1.02729 1.0273 1.02724 1.02731 1.0273 1.02724
1.0273 1.0273 1.02724 1.0273 1.02731 1.02724 1.0273 1.02729 1.02724 1.02729
1.02732 1.02725 1.0273 1.02729 1.02724 1.02729 1.02736 1.02728 1.02735 1.02728
1.02722 1.02726 1.02734 1.02734 1.02724 1.02722 1.02727 1.02735 1.02728 1.02737
1.02729 1.02724 1.02729 1.0273 1.02725 1.02732 1.0273 1.02724 1.02729 1.0273
1.02724 1.02731 1.02731 1.02724 1.0273 1.0273 1.02724 1.02731 1.02731 1.02724
1.0273 1.02729 1.02724 1.0273 1.02732 1.02725 1.0273 1.02729 1.02724 1.02729
1.02737 1.02728 1.02735 1.02727 1.02722 1.02724 1.02734 1.02734 1.02723 1.02721
1.02726 1.02734 1.02728 1.02737 1.02729 1.02724 1.02729 1.0273 1.02724 1.02733
1.0273 1.02723 1.02729 1.02729 1.02723 1.02731 1.02731 1.02724 1.02729 1.02729
1.02724 1.02731 1.02731 1.02723 1.02729 1.02729 1.02723 1.0273 1.02733 1.02724
1.0273 1.02729 1.02724 1.02729 1.02737 1.02728 1.02734 1.02726 1.02721 1.02723
1.02734 1.02734 1.02722 1.0272 1.02725 1.02733 1.02728 1.02737 1.02728 1.02723
1.02728 1.02729 1.02724 1.02733 1.02731 1.02723 1.02728 1.02729 1.02723 1.02731
1.02732 1.02723 1.02728 1.02728 1.02723 1.02732 1.02731 1.02723 1.02729 1.02728
1.02723 1.02731 1.02733 1.02724 1.02729 1.02728 1.02723 1.02728 1.02737 1.02728
1.02733 1.02725 1.0272 1.02722 1.02734 1.02734 1.02721 1.02719 1.02724 1.02732
1.02728 1.02737 1.02728 1.02722 1.02727 1.02729 1.02723 1.02733 1.02731 1.02723
1.02728 1.02728 1.02722 1.02732 1.02732 1.02723 1.02727 1.02727 1.02723 1.02732
1.02732 1.02722 1.02728 1.02728 1.02723 1.02731 1.02733 1.02723 1.02729 1.02727
1.02722 1.02728 1.02737 1.02728 1.02732 1.02724 1.02719 1.02721 1.02734 1.02735
1.02721 1.02719 1.02723 1.0273 1.02727 1.02737 1.02728 1.02721 1.02726 1.02728
1.02722 1.02732 1.02731 1.02723 1.02727 1.02727 1.02722 1.02732 1.02731 1.02722
1.02727 1.02727 1.02722 1.02731 1.02732 1.02722 1.02727 1.02727 1.02722 1.02731
1.02733 1.02722 1.02728 1.02726 1.02721 1.02728 1.02737 1.02727 1.0273 1.02723
1.02719 1.0272 1.02735 1.02735 1.02721 1.02718 1.02722 1.02728 1.02726 1.02737
1.02729 1.0272 1.02725 1.02726 1.02722 1.02732 1.02731 1.02722 1.02726 1.02726
1.02721 1.02732 1.0273 1.02721 1.02726 1.02726 1.02721 1.0273 1.02732 1.02721
1.02726 1.02726 1.02722 1.02731 1.02732 1.02722 1.02726 1.02725 1.0272 1.02729
1.02737 1.02726 1.02728 1.02722 1.02718 1.02721 1.02735 1.02735 1.02721 1.02717
1.02721 1.02727 1.02725 1.02735 1.02729 1.0272 1.02724 1.02725 1.0272 1.02731
1.02731 1.02722 1.02724 1.02724 1.02721 1.02732 1.02729 1.02719 1.02724 1.02724
1.02719 1.02729 1.02732 1.02721 1.02724 1.02724 1.02722 1.02731 1.02731 1.0272
1.02725 1.02724 1.0272 1.02729 1.02735 1.02725 1.02727 1.02721 1.02717 1.02721
1.02735 1.02736 1.02722 1.02717 1.0272 1.02725 1.02723 1.02733 1.0273 1.0272
1.02723 1.02723 1.02718 1.02728 1.0273 1.02722 1.02723 1.02723 1.0272 1.02731
1.02729 1.02718 1.02723 1.02723 1.02718 1.02729 1.02731 1.0272 1.02723 1.02723
1.02722 1.0273 1.02728 1.02718 1.02723 1.02723 1.0272 1.0273 1.02733 1.02723
1.02725 1.0272 1.02717 1.02722 1.02736 1.02736 1.02722 1.02717 1.02719 1.02724
1.02721 1.02731 1.02729 1.02721 1.02722 1.02721 1.02716 1.02726 1.0273 1.02722
1.02722 1.02721 1.02719 1.0273 1.02729 1.02718 1.02721 1.02721 1.02718 1.02729
1.0273 1.02719 1.02721 1.02722 1.02722 1.02729 1.02726 1.02716 1.02721 1.02722
1.02721 1.02729 1.02731 1.02721 1.02724 1.02719 1.02717 1.02722 1.02736 1.02736
1.02723 1.02716 1.02718 1.02722 1.02719 1.02729 1.02729 1.02722 1.02721 1.02719
1.02713 1.02725 1.02729 1.02722 1.02721 1.02719 1.02717 1.02729 1.02729 1.02718
1.0272 1.0272 1.02718 1.02729 1.02729 1.02717 1.02719 1.02721 1.02722 1.02729
1.02725 1.02714 1.02719 1.02721 1.02722 1.02729 1.02729 1.02719 1.02722 1.02718
1.02716 1.02723 1.02736 1.02736 1.02724 1.02717 1.02717 1.0272 1.02717 1.02728
1.02728 1.02722 1.0272 1.02717 1.02714 1.02726 1.02729 1.02721 1.0272 1.02718
1.02716 1.02729 1.02729 1.02719 1.02719 1.02719 1.02718 1.02729 1.02729 1.02716
1.02718 1.0272 1.02721 1.02729 1.02726 1.02714 1.02717 1.0272 1.02722 1.02728
1.02728 1.02717 1.0272 1.02717 1.02717 1.02724 1.02736 1.02737 1.02726 1.02718
1.02716 1.02718 1.02717 1.02728 1.02728 1.02722 1.02719 1.02717 1.02716 1.02726
1.02728 1.0272 1.02718 1.02717 1.02716 1.02728 1.02729 1.02719 1.02718 1.02718
1.02719 1.02729 1.02728 1.02716 1.02717 1.02718 1.0272 1.02728 1.02726 1.02716
1.02717 1.02719 1.02723 1.02728 1.02728 1.02717 1.02718 1.02716 1.02718 1.02726
1.02737 1.02739 1.02728 1.0272 1.02717 1.02718 1.02718 1.02729 1.02729 1.02724
1.02719 1.02717 1.02719 1.02727 1.02728 1.0272 1.02719 1.02718 1.02717 1.02729
1.0273 1.02721 1.02719 1.02719 1.02721 1.0273 1.02729 1.02717 1.02718 1.02719
1.0272 1.02728 1.02727 1.02719 1.02717 1.02719 1.02724 1.02729 1.02728 1.02718
1.02718 1.02717 1.0272 1.02728 1.02739 1.02741 1.02731 1.02724 1.02719 1.02719
1.02721 1.0273 1.02731 1.02725 1.02721 1.0272 1.02723 1.02729 1.02729 1.02721
1.02719 1.02719 1.02719 1.0273 1.02731 1.02724 1.02721 1.02721 1.02724 1.02731
1.0273 1.02719 1.02719 1.02719 1.02721 1.02729 1.02728 1.02723 1.0272 1.02721
1.02725 1.02731 1.0273 1.02721 1.02719 1.02719 1.02724 1.02732 1.02741 1.02745
1.02736 1.02729 1.02724 1.02724 1.02727 1.02733 1.02732 1.02729 1.02725 1.02725
1.0273 1.02731 1.02731 1.02725 1.02723 1.02723 1.02725 1.02732 1.02733 1.0273
1.02726 1.02726 1.0273 1.02733 1.02732 1.02725 1.02723 1.02723 1.02725 1.02731
1.02731 1.0273 1.02725 1.02725 1.02729 1.02732 1.02733 1.02727 1.02723 1.02724
1.02729 1.02736 1.02745 1.02748 1.02744 1.0274 1.02737 1.02736 1.02734 1.02733