# vtk DataFile Version 2.0
fuel_to_electrolyte
ASCII
DATASET POLYDATA
POINTS 1035 float
0.0035407 0 0 0.0035407 0 0.001 0.0035407 0.0005 0.001 0.0035407 0.0005
0 0.0035407 0.001 0.001 0.0035407 0.001 0 0.0035407 0.0015 0.001
0.0035407 0.0015 0 0.0035407 0.002 0.001 0.0035407 0.002 0 0.0035407
0.0025 0.001 0.0035407 0.0025 0 0.0035407 0.003 0.001 0.0035407 0.003
0 0.0035407 0.0035 0.001 0.0035407 0.0035 0 0.0035407 0.004 0.001
0.0035407 0.004 0 0.0035407 0.0045 0.001 0.0035407 0.0045 0 0.0035407
0.005 0.001 0.0035407 0.005 0 0.0035407 0.0055 0.001 0.0035407 0.0055
0 0.0035407 0.006 0.001 0.0035407 0.006 0 0.0035407 0.0065 0.001
0.0035407 0.0065 0 0.0035407 0.007 0.001 0.0035407 0.007 0 0.0035407
0.0075 0.001 0.0035407 0.0075 0 0.0035407 0.008 0.001 0.0035407 0.008
0 0.0035407 0.0085 0.001 0.0035407 0.0085 0 0.0035407 0.009 0.001
0.0035407 0.009 0 0.0035407 0.0095 0.001 0.0035407 0.0095 0 0.0035407
0.01 0.001 0.0035407 0.01 0 0.0035407 0.0105 0.001 0.0035407 0.0105
0 0.0035407 0.011 0.001 0.0035407 0.011 0 0.0035407 0.0115 0.001
0.0035407 0.0115 0 0.0035407 0.012 0.001 0.0035407 0.012 0 0.0035407
0.0125 0.001 0.0035407 0.0125 0 0.0035407 0.013 0.001 0.0035407 0.013
0 0.0035407 0.0135 0.001 0.0035407 0.0135 0 0.0035407 0.014 0.001
0.0035407 0.014 0 0.0035407 0.0145 0.001 0.0035407 0.0145 0 0.0035407
0.015 0.001 0.0035407 0.015 0 0.0035407 0.0155 0.001 0.0035407 0.0155
0 0.0035407 0.016 0.001 0.0035407 0.016 0 0.0035407 0.0165 0.001
0.0035407 0.0165 0 0.0035407 0.017 0.001 0.0035407 0.017 0 0.0035407
0.0175 0.001 0.0035407 0.0175 0 0.0035407 0.018 0.001 0.0035407 0.018
0 0.0035407 0.0185 0.001 0.0035407 0.0185 0 0.0035407 0.019 0.001
0.0035407 0.019 0 0.0035407 0.0195 0.001 0.0035407 0.0195 0 0.0035407
0.02 0.001 0.0035407 0.02 0 0.0035407 0.0205 0.001 0.0035407 0.0205
0 0.0035407 0.021 0.001 0.0035407 0.021 0 0.0035407 0.0215 0.001
0.0035407 0.0215 0 0.0035407 0.022 0.001 0.0035407 0.022 0 0.0035407
0 0.002 0.0035407 0.0005 0.002 0.0035407 0.001 0.002 0.0035407 0.0015
0.002 0.0035407 0.002 0.002 0.0035407 0.0025 0.002 0.0035407 0.003 0.002
0.0035407 0.0035 0.002 0.0035407 0.004 0.002 0.0035407 0.0045 0.002 0.0035407
0.005 0.002 0.0035407 0.0055 0.002 0.0035407 0.006 0.002 0.0035407 0.0065
0.002 0.0035407 0.007 0.002 0.0035407 0.0075 0.002 0.0035407 0.008 0.002
0.0035407 0.0085 0.002 0.0035407 0.009 0.002 0.0035407 0.0095 0.002 0.0035407
0.01 0.002 0.0035407 0.0105 0.002 0.0035407 0.011 0.002 0.0035407 0.0115
0.002 0.0035407 0.012 0.002 0.0035407 0.0125 0.002 0.0035407 0.013 0.002
0.0035407 0.0135 0.002 0.0035407 0.014 0.002 0.0035407 0.0145 0.002 0.0035407
0.015 0.002 0.0035407 0.0155 0.002 0.0035407 0.016 0.002 0.0035407 0.0165
0.002 0.0035407 0.017 0.002 0.0035407 0.0175 0.002 0.0035407 0.018 0.002
0.0035407 0.0185 0.002 0.0035407 0.019 0.002 0.0035407 0.0195 0.002 0.0035407
0.02 0.002 0.0035407 0.0205 0.002 0.0035407 0.021 0.002 0.0035407 0.0215
0.002 0.0035407 0.022 0.002 0.0035407 0 0.003 0.0035407 0.0005 0.003
0.0035407 0.001 0.003 0.0035407 0.0015 0.003 0.0035407 0.002 0.003 0.0035407
0.0025 0.003 0.0035407 0.003 0.003 0.0035407 0.0035 0.003 0.0035407 0.004
0.003 0.0035407 0.0045 0.003 0.0035407 0.005 0.003 0.0035407 0.0055 0.003
0.0035407 0.006 0.003 0.0035407 0.0065 0.003 0.0035407 0.007 0.003 0.0035407
0.0075 0.003 0.0035407 0.008 0.003 0.0035407 0.0085 0.003 0.0035407 0.009
0.003 0.0035407 0.0095 0.003 0.0035407 0.01 0.003 0.0035407 0.0105 0.003
0.0035407 0.011 0.003 0.0035407 0.0115 0.003 0.0035407 0.012 0.003 0.0035407
0.0125 0.003 0.0035407 0.013 0.003 0.0035407 0.0135 0.003 0.0035407 0.014
0.003 0.0035407 0.0145 0.003 0.0035407 0.015 0.003 0.0035407 0.0155 0.003
0.0035407 0.016 0.003 0.0035407 0.0165 0.003 0.0035407 0.017 0.003 0.0035407
0.0175 0.003 0.0035407 0.018 0.003 0.0035407 0.0185 0.003 0.0035407 0.019
0.003 0.0035407 0.0195 0.003 0.0035407 0.02 0.003 0.0035407 0.0205 0.003
0.0035407 0.021 0.003 0.0035407 0.0215 0.003 0.0035407 0.022 0.003 0.0035407
0 0.004 0.0035407 0.0005 0.004 0.0035407 0.001 0.004 0.0035407 0.0015
0.004 0.0035407 0.002 0.004 0.0035407 0.0025 0.004 0.0035407 0.003 0.004
0.0035407 0.0035 0.004 0.0035407 0.004 0.004 0.0035407 0.0045 0.004 0.0035407
0.005 0.004 0.0035407 0.0055 0.004 0.0035407 0.006 0.004 0.0035407 0.0065
0.004 0.0035407 0.007 0.004 0.0035407 0.0075 0.004 0.0035407 0.008 0.004
0.0035407 0.0085 0.004 0.0035407 0.009 0.004 0.0035407 0.0095 0.004 0.0035407
0.01 0.004 0.0035407 0.0105 0.004 0.0035407 0.011 0.004 0.0035407 0.0115
0.004 0.0035407 0.012 0.004 0.0035407 0.0125 0.004 0.0035407 0.013 0.004
0.0035407 0.0135 0.004 0.0035407 0.014 0.004 0.0035407 0.0145 0.004 0.0035407
0.015 0.004 0.0035407 0.0155 0.004 0.0035407 0.016 0.004 0.0035407 0.0165
0.004 0.0035407 0.017 0.004 0.0035407 0.0175 0.004 0.0035407 0.018 0.004
0.0035407 0.0185 0.004 0.0035407 0.019 0.004 0.0035407 0.0195 0.004 0.0035407
0.02 0.004 0.0035407 0.0205 0.004 0.0035407 0.021 0.004 0.0035407 0.0215
0.004 0.0035407 0.022 0.004 0.0035407 0 0.005 0.0035407 0.0005 0.005
0.0035407 0.001 0.005 0.0035407 0.0015 0.005 0.0035407 0.002 0.005 0.0035407
0.0025 0.005 0.0035407 0.003 0.005 0.0035407 0.0035 0.005 0.0035407 0.004
0.005 0.0035407 0.0045 0.005 0.0035407 0.005 0.005 0.0035407 0.0055 0.005
0.0035407 0.006 0.005 0.0035407 0.0065 0.005 0.0035407 0.007 0.005 0.0035407
0.0075 0.005 0.0035407 0.008 0.005 0.0035407 0.0085 0.005 0.0035407 0.009
0.005 0.0035407 0.0095 0.005 0.0035407 0.01 0.005 0.0035407 0.0105 0.005
0.0035407 0.011 0.005 0.0035407 0.0115 0.005 0.0035407 0.012 0.005 0.0035407
0.0125 0.005 0.0035407 0.013 0.005 0.0035407 0.0135 0.005 0.0035407 0.014
0.005 0.0035407 0.0145 0.005 0.0035407 0.015 0.005 0.0035407 0.0155 0.005
0.0035407 0.016 0.005 0.0035407 0.0165 0.005 0.0035407 0.017 0.005 0.0035407
0.0175 0.005 0.0035407 0.018 0.005 0.0035407 0.0185 0.005 0.0035407 0.019
0.005 0.0035407 0.0195 0.005 0.0035407 0.02 0.005 0.0035407 0.0205 0.005
0.0035407 0.021 0.005 0.0035407 0.0215 0.005 0.0035407 0.022 0.005 0.0035407
0 0.006 0.0035407 0.0005 0.006 0.0035407 0.001 0.006 0.0035407 0.0015
0.006 0.0035407 0.002 0.006 0.0035407 0.0025 0.006 0.0035407 0.003 0.006
0.0035407 0.0035 0.006 0.0035407 0.004 0.006 0.0035407 0.0045 0.006 0.0035407
0.005 0.006 0.0035407 0.0055 0.006 0.0035407 0.006 0.006 0.0035407 0.0065
0.006 0.0035407 0.007 0.006 0.0035407 0.0075 0.006 0.0035407 0.008 0.006
0.0035407 0.0085 0.006 0.0035407 0.009 0.006 0.0035407 0.0095 0.006 0.0035407
0.01 0.006 0.0035407 0.0105 0.006 0.0035407 0.011 0.006 0.0035407 0.0115
0.006 0.0035407 0.012 0.006 0.0035407 0.0125 0.006 0.0035407 0.013 0.006
0.0035407 0.0135 0.006 0.0035407 0.014 0.006 0.0035407 0.0145 0.006 0.0035407
0.015 0.006 0.0035407 0.0155 0.006 0.0035407 0.016 0.006 0.0035407 0.0165
0.006 0.0035407 0.017 0.006 0.0035407 0.0175 0.006 0.0035407 0.018 0.006
0.0035407 0.0185 0.006 0.0035407 0.019 0.006 0.0035407 0.0195 0.006 0.0035407
0.02 0.006 0.0035407 0.0205 0.006 0.0035407 0.021 0.006 0.0035407 0.0215
0.006 0.0035407 0.022 0.006 0.0035407 0 0.007 0.0035407 0.0005 0.007
0.0035407 0.001 0.007 0.0035407 0.0015 0.007 0.0035407 0.002 0.007 0.0035407
0.0025 0.007 0.0035407 0.003 0.007 0.0035407 0.0035 0.007 0.0035407 0.004
0.007 0.0035407 0.0045 0.007 0.0035407 0.005 0.007 0.0035407 0.0055 0.007
0.0035407 0.006 0.007 0.0035407 0.0065 0.007 0.0035407 0.007 0.007 0.0035407
0.0075 0.007 0.0035407 0.008 0.007 0.0035407 0.0085 0.007 0.0035407 0.009
0.007 0.0035407 0.0095 0.007 0.0035407 0.01 0.007 0.0035407 0.0105 0.007
0.0035407 0.011 0.007 0.0035407 0.0115 0.007 0.0035407 0.012 0.007 0.0035407
0.0125 0.007 0.0035407 0.013 0.007 0.0035407 0.0135 0.007 0.0035407 0.014
0.007 0.0035407 0.0145 0.007 0.0035407 0.015 0.007 0.0035407 0.0155 0.007
0.0035407 0.016 0.007 0.0035407 0.0165 0.007 0.0035407 0.017 0.007 0.0035407
0.0175 0.007 0.0035407 0.018 0.007 0.0035407 0.0185 0.007 0.0035407 0.019
0.007 0.0035407 0.0195 0.007 0.0035407 0.02 0.007 0.0035407 0.0205 0.007
0.0035407 0.021 0.007 0.0035407 0.0215 0.007 0.0035407 0.022 0.007 0.0035407
0 0.008 0.0035407 0.0005 0.008 0.0035407 0.001 0.008 0.0035407 0.0015
0.008 0.0035407 0.002 0.008 0.0035407 0.0025 0.008 0.0035407 0.003 0.008
0.0035407 0.0035 0.008 0.0035407 0.004 0.008 0.0035407 0.0045 0.008 0.0035407
0.005 0.008 0.0035407 0.0055 0.008 0.0035407 0.006 0.008 0.0035407 0.0065
0.008 0.0035407 0.007 0.008 0.0035407 0.0075 0.008 0.0035407 0.008 0.008
0.0035407 0.0085 0.008 0.0035407 0.009 0.008 0.0035407 0.0095 0.008 0.0035407
0.01 0.008 0.0035407 0.0105 0.008 0.0035407 0.011 0.008 0.0035407 0.0115
0.008 0.0035407 0.012 0.008 0.0035407 0.0125 0.008 0.0035407 0.013 0.008
0.0035407 0.0135 0.008 0.0035407 0.014 0.008 0.0035407 0.0145 0.008 0.0035407
0.015 0.008 0.0035407 0.0155 0.008 0.0035407 0.016 0.008 0.0035407 0.0165
0.008 0.0035407 0.017 0.008 0.0035407 0.0175 0.008 0.0035407 0.018 0.008
0.0035407 0.0185 0.008 0.0035407 0.019 0.008 0.0035407 0.0195 0.008 0.0035407
0.02 0.008 0.0035407 0.0205 0.008 0.0035407 0.021 0.008 0.0035407 0.0215
0.008 0.0035407 0.022 0.008 0.0035407 0 0.009 0.0035407 0.0005 0.009
0.0035407 0.001 0.009 0.0035407 0.0015 0.009 0.0035407 0.002 0.009 0.0035407
0.0025 0.009 0.0035407 0.003 0.009 0.0035407 0.0035 0.009 0.0035407 0.004
0.009 0.0035407 0.0045 0.009 0.0035407 0.005 0.009 0.0035407 0.0055 0.009
0.0035407 0.006 0.009 0.0035407 0.0065 0.009 0.0035407 0.007 0.009 0.0035407
0.0075 0.009 0.0035407 0.008 0.009 0.0035407 0.0085 0.009 0.0035407 0.009
0.009 0.0035407 0.0095 0.009 0.0035407 0.01 0.009 0.0035407 0.0105 0.009
0.0035407 0.011 0.009 0.0035407 0.0115 0.009 0.0035407 0.012 0.009 0.0035407
0.0125 0.009 0.0035407 0.013 0.009 0.0035407 0.0135 0.009 0.0035407 0.014
0.009 0.0035407 0.0145 0.009 0.0035407 0.015 0.009 0.0035407 0.0155 0.009
0.0035407 0.016 0.009 0.0035407 0.0165 0.009 0.0035407 0.017 0.009 0.0035407
0.0175 0.009 0.0035407 0.018 0.009 0.0035407 0.0185 0.009 0.0035407 0.019
0.009 0.0035407 0.0195 0.009 0.0035407 0.02 0.009 0.0035407 0.0205 0.009
0.0035407 0.021 0.009 0.0035407 0.0215 0.009 0.0035407 0.022 0.009 0.0035407
[...]
CELL_DATA 968
FIELD attributes 16
patchID 1 968 float
4 4 4 4 4 4 4 4 4 4 4
4 4 4 4 4 4 4 4 4 4
4 4 4 4 4 4 4 4 4 4
4 4 4 4 4 4 4 4 4 4
4 4 4 4 4 4 4 4 4 4
4 4 4 4 4 4 4 4 4 4
4 4 4 4 4 4 4 4 4 4
4 4 4 4 4 4 4 4 4 4
4 4 4 4 4 4 4 4 4 4
4 4 4 4 4 4 4 4 4 4
4 4 4 4 4 4 4 4 4 4
4 4 4 4 4 4 4 4 4 4
4 4 4 4 4 4 4 4 4 4
4 4 4 4 4 4 4 4 4 4
4 4 4 4 4 4 4 4 4 4
4 4 4 4 4 4 4 4 4 4
4 4 4 4 4 4 4 4 4 4
4 4 4 4 4 4 4 4 4 4
4 4 4 4 4 4 4 4 4 4
4 4 4 4 4 4 4 4 4 4
4 4 4 4 4 4 4 4 4 4
4 4 4 4 4 4 4 4 4 4
4 4 4 4 4 4 4 4 4 4
4 4 4 4 4 4 4 4 4 4
4 4 4 4 4 4 4 4 4 4
4 4 4 4 4 4 4 4 4 4
4 4 4 4 4 4 4 4 4 4
4 4 4 4 4 4 4 4 4 4
4 4 4 4 4 4 4 4 4 4
4 4 4 4 4 4 4 4 4 4
4 4 4 4 4 4 4 4 4 4
4 4 4 4 4 4 4 4 4 4
4 4 4 4 4 4 4 4 4 4
4 4 4 4 4 4 4 4 4 4
4 4 4 4 4 4 4 4 4 4
4 4 4 4 4 4 4 4 4 4
4 4 4 4 4 4 4 4 4 4
4 4 4 4 4 4 4 4 4 4
4 4 4 4 4 4 4 4 4 4
4 4 4 4 4 4 4 4 4 4
4 4 4 4 4 4 4 4 4 4
4 4 4 4 4 4 4 4 4 4
4 4 4 4 4 4 4 4 4 4
4 4 4 4 4 4 4 4 4 4
4 4 4 4 4 4 4 4 4 4
4 4 4 4 4 4 4 4 4 4
4 4 4 4 4 4 4 4 4 4
4 4 4 4 4 4 4 4 4 4
4 4 4 4 4 4 4 4 4 4
4 4 4 4 4 4 4 4 4 4
4 4 4 4 4 4 4 4 4 4
4 4 4 4 4 4 4 4 4 4
4 4 4 4 4 4 4 4 4 4
4 4 4 4 4 4 4 4 4 4
4 4 4 4 4 4 4 4 4 4
4 4 4 4 4 4 4 4 4 4
4 4 4 4 4 4 4 4 4 4
4 4 4 4 4 4 4 4 4 4
4 4 4 4 4 4 4 4 4 4
4 4 4 4 4 4 4 4 4 4
4 4 4 4 4 4 4 4 4 4
4 4 4 4 4 4 4 4 4 4
4 4 4 4 4 4 4 4 4 4
4 4 4 4 4 4 4 4 4 4
4 4 4 4 4 4 4 4 4 4
4 4 4 4 4 4 4 4 4 4
4 4 4 4 4 4 4 4 4 4
4 4 4 4 4 4 4 4 4 4
4 4 4 4 4 4 4 4 4 4
4 4 4 4 4 4 4 4 4 4
4 4 4 4 4 4 4 4 4 4
4 4 4 4 4 4 4 4 4 4
4 4 4 4 4 4 4 4 4 4
4 4 4 4 4 4 4 4 4 4
4 4 4 4 4 4 4 4 4 4
4 4 4 4 4 4 4 4 4 4
4 4 4 4 4 4 4 4 4 4
4 4 4 4 4 4 4 4 4 4
4 4 4 4 4 4 4 4 4 4
4 4 4 4 4 4 4 4 4 4
4 4 4 4 4 4 4 4 4 4
4 4 4 4 4 4 4 4 4 4
4 4 4 4 4 4 4 4 4 4
4 4 4 4 4 4 4 4 4 4
4 4 4 4 4 4 4 4 4 4
4 4 4 4 4 4 4 4 4 4
4 4 4 4 4 4 4 4 4 4
4 4 4 4 4 4 4 4 4 4
4 4 4 4 4 4 4 4 4 4
4 4 4 4 4 4 4 4 4 4
4 4 4 4 4 4 4 4 4 4
4 4 4 4 4 4 4 4 4 4
4 4 4 4 4 4 4 4 4 4
4 4 4 4 4 4 4 4 4 4
4 4 4 4 4 4 4 4 4 4
4 4 4 4 4 4 4 4 4 4
4 4 4 4 4 4 4 
diffH2Ofuel 1 968 float
0 0 0 0 0 0 0 0 0 0 0
0 0 0 0 0 0 0 0 0 0
0 0 0 0 0 0 0 0 0 0
0 0 0 0 0 0 0 0 0 0
0 0 0 0 0 0 0 0 0 0
0 0 0 0 0 0 0 0 0 0
0 0 0 0 0 0 0 0 0 0
0 0 0 0 0 0 0 0 0 0
0 0 0 0 0 0 0 0 0 0
0 0 0 0 0 0 0 0 0 0
0 0 0 0 0 0 0 0 0 0
0 0 0 0 0 0 0 0 0 0
0 0 0 0 0 0 0 0 0 0
0 0 0 0 0 0 0 0 0 0
0 0 0 0 0 0 0 0 0 0
0 0 0 0 0 0 0 0 0 0
0 0 0 0 0 0 0 0 0 0
0 0 0 0 0 0 0 0 0 0
0 0 0 0 0 0 0 0 0 0
0 0 0 0 0 0 0 0 0 0
0 0 0 0 0 0 0 0 0 0
0 0 0 0 0 0 0 0 0 0
0 0 0 0 0 0 0 0 0 0
0 0 0 0 0 0 0 0 0 0
0 0 0 0 0 0 0 0 0 0
0 0 0 0 0 0 0 0 0 0
0 0 0 0 0 0 0 0 0 0
0 0 0 0 0 0 0 0 0 0
0 0 0 0 0 0 0 0 0 0
0 0 0 0 0 0 0 0 0 0
0 0 0 0 0 0 0 0 0 0
0 0 0 0 0 0 0 0 0 0
0 0 0 0 0 0 0 0 0 0
0 0 0 0 0 0 0 0 0 0
0 0 0 0 0 0 0 0 0 0
0 0 0 0 0 0 0 0 0 0
0 0 0 0 0 0 0 0 0 0
0 0 0 0 0 0 0 0 0 0
0 0 0 0 0 0 0 0 0 0
0 0 0 0 0 0 0 0 0 0
0 0 0 0 0 0 0 0 0 0
0 0 0 0 0 0 0 0 0 0
0 0 0 0 0 0 0 0 0 0
0 0 0 0 0 0 0 0 0 0
0 0 0 0 0 0 0 0 0 0
0 0 0 0 0 0 0 0 0 0
0 0 0 0 0 0 0 0 0 0
0 0 0 0 0 0 0 0 0 0
0 0 0 0 0 0 0 0 0 0
0 0 0 0 0 0 0 0 0 0
0 0 0 0 0 0 0 0 0 0
0 0 0 0 0 0 0 0 0 0
0 0 0 0 0 0 0 0 0 0
0 0 0 0 0 0 0 0 0 0
0 0 0 0 0 0 0 0 0 0
0 0 0 0 0 0 0 0 0 0
0 0 0 0 0 0 0 0 0 0
0 0 0 0 0 0 0 0 0 0
0 0 0 0 0 0 0 0 0 0
0 0 0 0 0 0 0 0 0 0
0 0 0 0 0 0 0 0 0 0
0 0 0 0 0 0 0 0 0 0
0 0 0 0 0 0 0 0 0 0
0 0 0 0 0 0 0 0 0 0
0 0 0 0 0 0 0 0 0 0
0 0 0 0 0 0 0 0 0 0
0 0 0 0 0 0 0 0 0 0
0 0 0 0 0 0 0 0 0 0
0 0 0 0 0 0 0 0 0 0
0 0 0 0 0 0 0 0 0 0
0 0 0 0 0 0 0 0 0 0
0 0 0 0 0 0 0 0 0 0
0 0 0 0 0 0 0 0 0 0
0 0 0 0 0 0 0 0 0 0
0 0 0 0 0 0 0 0 0 0
0 0 0 0 0 0 0 0 0 0
0 0 0 0 0 0 0 0 0 0
0 0 0 0 0 0 0 0 0 0
0 0 0 0 0 0 0 0 0 0
0 0 0 0 0 0 0 0 0 0
0 0 0 0 0 0 0 0 0 0
0 0 0 0 0 0 0 0 0 0
0 0 0 0 0 0 0 0 0 0
0 0 0 0 0 0 0 0 0 0
0 0 0 0 0 0 0 0 0 0
0 0 0 0 0 0 0 0 0 0
0 0 0 0 0 0 0 0 0 0
0 0 0 0 0 0 0 0 0 0
0 0 0 0 0 0 0 0 0 0
0 0 0 0 0 0 0 0 0 0
0 0 0 0 0 0 0 0 0 0
0 0 0 0 0 0 0 0 0 0
0 0 0 0 0 0 0 0 0 0
0 0 0 0 0 0 0 0 0 0
0 0 0 0 0 0 0 0 0 0
0 0 0 0 0 0 0 0 0 0
0 0 0 0 0 0 0 
XCH3OHfuel 1 968 float
0.832844 0.833776 0.83437 0.834426 0.834419 0.834375 0.833884 0.833916 0.834379 0.834421 0.834422
0.834379 0.833908 0.833913 0.83438 0.834423 0.834423 0.83438 0.833911 0.833913 0.834381
0.834423 0.834423 0.834381 0.833913 0.833911 0.83438 0.834422 0.834422 0.83438 0.833911
0.833906 0.834378 0.834421 0.834422 0.83438 0.833917 0.833885 0.834376 0.834421 0.83443
0.834374 0.833784 0.832857 0.833138 0.833774 0.834256 0.834315 0.834306 0.834243 0.833769
0.833808 0.834251 0.834307 0.834307 0.834247 0.833789 0.833797 0.834248 0.834306 0.834305
0.834246 0.83379 0.833793 0.834247 0.834305 0.834305 0.834247 0.833793 0.83379 0.834247
0.834306 0.834306 0.834248 0.833796 0.833789 0.834247 0.834306 0.834308 0.834251 0.833808
0.833769 0.834243 0.834307 0.834316 0.834256 0.833776 0.833143 0.832958 0.833576 0.834128
0.834213 0.834202 0.83411 0.8336 0.833637 0.834121 0.834204 0.834202 0.834115 0.833618
0.83363 0.834119 0.834204 0.834203 0.834118 0.833623 0.833627 0.834119 0.834204 0.834204
0.834119 0.833627 0.833623 0.834118 0.834204 0.834204 0.834119 0.83363 0.833618 0.834115
0.834202 0.834204 0.834121 0.833638 0.8336 0.83411 0.834203 0.834214 0.834129 0.833578
0.832962 0.832687 0.83329 0.833983 0.834112 0.834102 0.833968 0.833413 0.833441 0.833987
0.834106 0.834103 0.833975 0.833428 0.833436 0.833983 0.834104 0.834103 0.833977 0.833429
0.833432 0.833979 0.834103 0.834103 0.833979 0.833432 0.833429 0.833976 0.834102 0.834104
0.833983 0.833436 0.833427 0.833974 0.834103 0.834106 0.833987 0.833442 0.833413 0.833968
0.834102 0.834113 0.833985 0.833293 0.83269 0.83241 0.833016 0.833844 0.83402 0.834011
0.833845 0.833227 0.833248 0.833866 0.834016 0.834012 0.833851 0.833238 0.833246 0.833864
0.834016 0.834014 0.833856 0.833242 0.833245 0.833861 0.834015 0.834015 0.833861 0.833245
0.833243 0.833856 0.834014 0.834017 0.833864 0.833247 0.833239 0.833852 0.834013 0.834015
0.833866 0.833247 0.833227 0.833845 0.83401 0.834018 0.833842 0.833014 0.832409 0.832129
0.832738 0.833687 0.833929 0.833927 0.833728 0.833051 0.833067 0.833745 0.833933 0.83393
0.833731 0.833062 0.833068 0.833749 0.833935 0.833933 0.833738 0.833065 0.833067 0.833743
0.833934 0.833934 0.833743 0.833068 0.833065 0.833738 0.833932 0.833935 0.833749 0.833068
0.833061 0.83373 0.833929 0.833934 0.833746 0.833067 0.833052 0.833728 0.833928 0.833931
0.83369 0.832743 0.832133 0.83185 0.832483 0.833556 0.833851 0.833856 0.833626 0.832887
0.8329 0.833648 0.833863 0.833858 0.833629 0.832894 0.832901 0.833649 0.833864 0.83386
0.833637 0.832896 0.832898 0.83364 0.83386 0.833861 0.833641 0.832898 0.832896 0.833638
0.83386 0.833864 0.83365 0.832901 0.832894 0.83363 0.833858 0.833863 0.833649 0.8329
0.832888 0.833626 0.833856 0.833852 0.833557 0.832486 0.831852 0.831571 0.832242 0.833434
0.833778 0.833788 0.833533 0.832732 0.832743 0.833561 0.833799 0.833793 0.83354 0.832739
0.832746 0.833561 0.8338 0.833797 0.833551 0.832743 0.832744 0.833552 0.833797 0.833797
0.833552 0.832744 0.832743 0.833551 0.833797 0.8338 0.833561 0.832746 0.832739 0.83354
0.833792 0.833799 0.833562 0.832744 0.832732 0.833533 0.833788 0.833779 0.833435 0.832244
0.831574 0.831299 0.83202 0.833332 0.833715 0.833729 0.833453 0.832593 0.832605 0.833486
0.833743 0.833736 0.833462 0.8326 0.832606 0.833485 0.833744 0.83374 0.833474 0.832601
0.832602 0.833471 0.833738 0.833739 0.833471 0.832602 0.832601 0.833473 0.833739 0.833744
0.833485 0.832606 0.832599 0.833461 0.833736 0.833743 0.833486 0.832605 0.832593 0.833453
0.83373 0.833716 0.833333 0.832023 0.831302 0.83104 0.831815 0.833238 0.833656 0.833674
0.833381 0.832465 0.832476 0.833413 0.83369 0.833683 0.833388 0.832471 0.832479 0.833414
0.833692 0.833688 0.833402 0.832476 0.832477 0.833403 0.833688 0.833688 0.833403 0.832477
0.832476 0.833402 0.833689 0.833692 0.833414 0.83248 0.832472 0.833389 0.833683 0.83369
0.833413 0.832476 0.832465 0.83338 0.833673 0.833655 0.833237 0.831814 0.831038 0.83079
0.831621 0.833149 0.8336 0.833623 0.833315 0.83235 0.83236 0.833344 0.83364 0.833635
0.833324 0.832358 0.832365 0.833346 0.833643 0.83364 0.833333 0.832363 0.832365 0.83334
0.833641 0.833641 0.833341 0.832365 0.832362 0.833332 0.83364 0.833643 0.833346 0.832364
0.832357 0.833324 0.833635 0.833641 0.833345 0.832361 0.83235 0.833316 0.833625 0.833602
0.833153 0.831626 0.830795 0.830562 0.831447 0.833069 0.833551 0.83358 0.833257 0.83225
0.832259 0.833283 0.833597 0.833592 0.833269 0.832258 0.832262 0.833278 0.833597 0.833593
0.833267 0.832259 0.832262 0.83328 0.833595 0.833596 0.83328 0.832262 0.832258 0.833268
0.833594 0.833597 0.833278 0.832262 0.832258 0.833269 0.833592 0.833597 0.833283 0.83226
0.83225 0.833258 0.83358 0.833552 0.833071 0.831449 0.830566 0.830348 0.831281 0.83299
0.833502 0.833536 0.8332 0.832157 0.832165 0.833225 0.833554 0.83355 0.833217 0.832176
0.83217 0.833213 0.833552 0.833551 0.833211 0.832167 0.83217 0.833222 0.833554 0.833554
0.833222 0.832171 0.832167 0.833211 0.833551 0.833552 0.833213 0.83217 0.832175 0.833217
0.83355 0.833554 0.833225 0.832166 0.832157 0.833201 0.833536 0.833503 0.832991 0.831284
0.830351 0.830147 0.831124 0.832911 0.833456 0.833495 0.833148 0.832075 0.832083 0.833171
0.833515 0.833513 0.833171 0.832104 0.832087 0.833151 0.833509 0.83351 0.833158 0.832082
0.832085 0.833165 0.833512 0.833512 0.833166 0.832085 0.832082 0.833157 0.833509 0.833509
0.833151 0.832087 0.832104 0.83317 0.833513 0.833515 0.833171 0.832083 0.832075 0.833148
0.833496 0.833457 0.832913 0.831127 0.83015 0.829958 0.830977 0.832838 0.833411 0.833456
0.833102 0.831999 0.832005 0.833116 0.833475 0.833475 0.833124 0.832036 0.832011 0.833095
0.833468 0.833472 0.833111 0.832007 0.832009 0.833114 0.833474 0.833474 0.833114 0.832009
0.832008 0.833111 0.833472 0.833469 0.833095 0.832012 0.832037 0.833125 0.833476 0.833474
0.833115 0.832004 0.831998 0.833101 0.833454 0.833409 0.832837 0.830976 0.829957 0.829775
0.830828 0.832754 0.833362 0.833416 0.833057 0.831932 0.831931 0.833055 0.833434 0.833439
0.833079 0.831967 0.831941 0.833041 0.833429 0.833435 0.833065 0.831938 0.831938 0.833059
0.833435 0.833435 0.833059 0.831938 0.831937 0.833064 0.833435 0.833429 0.833041 0.831941
0.831966 0.833079 0.833439 0.833434 0.833057 0.831933 0.831933 0.833058 0.833417 0.833364
0.832757 0.830833 0.82978 0.829606 0.830691 0.832676 0.833318 0.833381 0.833018 0.831882
0.831869 0.833 0.833396 0.833404 0.833036 0.831904 0.831877 0.832991 0.833391 0.833399
0.833021 0.831874 0.83187 0.833005 0.833395 0.833396 0.833005 0.83187 0.831873 0.833021
0.833399 0.833391 0.832991 0.831877 0.831904 0.833036 0.833404 0.833396 0.833 0.831869
0.831882 0.833019 0.833382 0.833319 0.832678 0.830694 0.82961 0.829437 0.830536 0.832562
0.833262 0.833341 0.832974 0.831819 0.831802 0.832926 0.833351 0.833365 0.832981 0.831834
0.831811 0.832929 0.833349 0.83336 0.832967 0.831811 0.831805 0.83294 0.833354 0.833354
0.832941 0.831805 0.831811 0.832966 0.83336 0.83335 0.832929 0.831811 0.831834 0.832981
0.833365 0.833351 0.832927 0.831802 0.83182 0.832974 0.833341 0.833263 0.832564 0.830539
0.82944 0.829252 0.830338 0.832385 0.83319 0.833295 0.832911 0.831752 0.83173 0.832833
0.8333 0.833321 0.832906 0.831761 0.831739 0.832846 0.833301 0.833314 0.832888 0.83174
0.831732 0.832857 0.833305 0.833305 0.832857 0.831733 0.83174 0.832887 0.833313 0.833301
0.832846 0.831739 0.831761 0.832905 0.83332 0.8333 0.832833 0.831731 0.831752 0.832911
0.833296 0.833191 0.832387 0.830342 0.829255 0.829031 0.830103 0.832183 0.833102 0.833239
0.832829 0.83167 0.831642 0.832726 0.833239 0.833266 0.832814 0.831674 0.831653 0.83275
0.833245 0.83326 0.832795 0.831658 0.831649 0.832764 0.83325 0.83325 0.832764 0.83165
0.831658 0.832795 0.83326 0.833245 0.83275 0.831653 0.831675 0.832815 0.833267 0.833239
0.832726 0.831641 0.831669 0.832828 0.833238 0.833101 0.832182 0.830103 0.82903 0.828687
0.82963 0.831606 0.832933 0.833119 0.832595 0.831528 0.831489 0.83245 0.833124 0.833156
0.832564 0.831527 0.831504 0.832493 0.833134 0.833149 0.83254 0.831512 0.831502 0.832509
0.833139 0.833139 0.83251 0.831502 0.831511 0.832539 0.833149 0.833134 0.832493 0.831503
0.831526 0.832563 0.833156 0.833125 0.832451 0.83149 0.831529 0.832596 0.833121 0.832937
0.831611 0.829636 0.828694 0.828122 0.828914 0.830716 0.832549 0.832826 0.832161 0.831234
0.831185 0.832003 0.832838 0.832875 0.832122 0.831224 0.8312 0.832057 0.832851 0.832866
0.832096 0.831207 0.831198 0.832072 0.832855 0.832855 0.832073 0.831198 0.831207 0.832097
0.832867 0.832851 0.832057 0.831201 0.831224 0.832122 0.832875 0.832838 0.832004 0.831186
0.831235 0.832161 0.832826 0.832551 0.830719 0.828918 0.828126 
rho 1 968 float
1.02659 1.02623 1.02608 1.0261 1.02611 1.02608 1.02621 1.0262 1.02609 1.02611 1.02611
1.02609 1.0262 1.0262 1.02609 1.02611 1.02611 1.02609 1.0262 1.0262 1.02609
1.02611 1.02611 1.02609 1.0262 1.0262 1.02609 1.02611 1.02611 1.02609 1.0262
1.02621 1.02609 1.02611 1.02611 1.02609 1.0262 1.02621 1.02608 1.02611 1.0261
1.02607 1.02623 1.02658 1.02646 1.02621 1.02607 1.02608 1.02608 1.02608 1.02623
1.02622 1.02608 1.02609 1.02609 1.02608 1.02623 1.02623 1.02608 1.02609 1.02609
1.02609 1.02623 1.02623 1.02609 1.02609 1.02609 1.02609 1.02623 1.02623 1.02609
1.02609 1.02609 1.02608 1.02623 1.02623 1.02608 1.02609 1.02609 1.02608 1.02622
1.02623 1.02608 1.02608 1.02608 1.02607 1.02621 1.02646 1.02652 1.02628 1.02607
1.02606 1.02607 1.02609 1.02628 1.02627 1.02609 1.02607 1.02607 1.02609 1.02628
1.02627 1.02609 1.02607 1.02607 1.02609 1.02628 1.02627 1.02609 1.02607 1.02607
1.02609 1.02627 1.02628 1.02609 1.02607 1.02607 1.02609 1.02627 1.02628 1.02609
1.02607 1.02607 1.02609 1.02627 1.02628 1.02609 1.02607 1.02606 1.02607 1.02628
1.02652 1.02662 1.02638 1.0261 1.02606 1.02606 1.02611 1.02634 1.02632 1.02611
1.02607 1.02607 1.02611 1.02633 1.02633 1.02611 1.02607 1.02607 1.02612 1.02634
1.02633 1.02611 1.02607 1.02607 1.02611 1.02633 1.02634 1.02612 1.02607 1.02607
1.02611 1.02633 1.02633 1.02611 1.02607 1.02607 1.02611 1.02632 1.02634 1.02611
1.02606 1.02606 1.0261 1.02638 1.02662 1.02673 1.02647 1.02613 1.02606 1.02607
1.02614 1.02639 1.02639 1.02613 1.02607 1.02608 1.02614 1.02639 1.02639 1.02613
1.02608 1.02608 1.02614 1.02639 1.02639 1.02614 1.02608 1.02608 1.02614 1.02639
1.02639 1.02614 1.02608 1.02607 1.02613 1.02639 1.02639 1.02614 1.02607 1.02607
1.02613 1.02639 1.02639 1.02614 1.02607 1.02607 1.02613 1.02648 1.02673 1.02683
1.02657 1.02618 1.02608 1.02608 1.02616 1.02645 1.02645 1.02616 1.02608 1.02608
1.02617 1.02645 1.02645 1.02616 1.02608 1.02608 1.02616 1.02645 1.02645 1.02616
1.02608 1.02608 1.02616 1.02645 1.02645 1.02616 1.02608 1.02608 1.02616 1.02645
1.02645 1.02617 1.02608 1.02608 1.02616 1.02645 1.02645 1.02616 1.02608 1.02608
1.02618 1.02657 1.02683 1.02693 1.02667 1.02621 1.02609 1.02609 1.02619 1.0265
1.0265 1.02618 1.02609 1.02609 1.02619 1.0265 1.0265 1.02618 1.02609 1.02609
1.02619 1.0265 1.0265 1.02619 1.02609 1.02609 1.02619 1.0265 1.0265 1.02619
1.02609 1.02609 1.02618 1.0265 1.0265 1.02619 1.02609 1.02609 1.02618 1.0265
1.0265 1.02619 1.02609 1.02609 1.02621 1.02667 1.02693 1.02703 1.02675 1.02625
1.0261 1.0261 1.02621 1.02655 1.02655 1.0262 1.0261 1.0261 1.02621 1.02655
1.02655 1.0262 1.0261 1.0261 1.0262 1.02655 1.02655 1.0262 1.0261 1.0261
1.0262 1.02655 1.02655 1.0262 1.0261 1.0261 1.0262 1.02655 1.02655 1.02621
1.0261 1.0261 1.0262 1.02655 1.02655 1.02621 1.0261 1.0261 1.02625 1.02675
1.02703 1.02714 1.02683 1.02628 1.02611 1.02611 1.02623 1.0266 1.02659 1.02621
1.0261 1.0261 1.02622 1.0266 1.02659 1.02622 1.0261 1.0261 1.02622 1.0266
1.0266 1.02622 1.02611 1.02611 1.02622 1.0266 1.0266 1.02622 1.02611 1.0261
1.02622 1.02659 1.0266 1.02622 1.0261 1.0261 1.02621 1.02659 1.0266 1.02623
1.02611 1.02611 1.02628 1.02683 1.02714 1.02723 1.02691 1.0263 1.02612 1.02611
1.02624 1.02664 1.02663 1.02623 1.02611 1.02611 1.02624 1.02664 1.02663 1.02623
1.02611 1.02611 1.02624 1.02664 1.02664 1.02624 1.02611 1.02611 1.02624 1.02664
1.02664 1.02624 1.02611 1.02611 1.02623 1.02663 1.02664 1.02624 1.02611 1.02611
1.02623 1.02663 1.02664 1.02624 1.02611 1.02612 1.0263 1.02691 1.02723 1.02732
1.02698 1.02632 1.02613 1.02612 1.02626 1.02667 1.02667 1.02624 1.02611 1.02612
1.02625 1.02667 1.02667 1.02624 1.02611 1.02612 1.02625 1.02667 1.02667 1.02625
1.02612 1.02612 1.02625 1.02667 1.02667 1.02625 1.02612 1.02611 1.02624 1.02667
1.02667 1.02625 1.02612 1.02611 1.02624 1.02667 1.02667 1.02626 1.02612 1.02613
1.02632 1.02697 1.02732 1.02741 1.02704 1.02635 1.02614 1.02612 1.02627 1.0267
1.0267 1.02626 1.02612 1.02612 1.02626 1.0267 1.0267 1.02626 1.02612 1.02612
1.02627 1.0267 1.0267 1.02626 1.02612 1.02612 1.02626 1.0267 1.0267 1.02627
1.02612 1.02612 1.02626 1.0267 1.0267 1.02626 1.02612 1.02612 1.02626 1.0267
1.0267 1.02627 1.02612 1.02614 1.02635 1.02703 1.02741 1.02749 1.02709 1.02637
1.02614 1.02613 1.02628 1.02673 1.02673 1.02627 1.02612 1.02612 1.02627 1.02672
1.02673 1.02628 1.02613 1.02613 1.02628 1.02673 1.02673 1.02627 1.02612 1.02612
1.02627 1.02673 1.02673 1.02628 1.02613 1.02613 1.02628 1.02673 1.02672 1.02627
1.02612 1.02612 1.02627 1.02673 1.02673 1.02628 1.02613 1.02614 1.02637 1.02709
1.02749 1.02756 1.02715 1.02639 1.02615 1.02614 1.02629 1.02675 1.02675 1.02628
1.02613 1.02613 1.02628 1.02674 1.02675 1.02629 1.02613 1.02613 1.02629 1.02675
1.02675 1.02629 1.02613 1.02613 1.02629 1.02675 1.02675 1.02629 1.02613 1.02613
1.02629 1.02675 1.02674 1.02628 1.02613 1.02613 1.02628 1.02675 1.02675 1.02629
1.02614 1.02615 1.02639 1.02715 1.02756 1.02763 1.0272 1.02641 1.02616 1.02614
1.0263 1.02678 1.02678 1.02629 1.02613 1.02613 1.02629 1.02676 1.02677 1.0263
1.02614 1.02614 1.0263 1.02678 1.02678 1.0263 1.02614 1.02613 1.02629 1.02678
1.02678 1.0263 1.02614 1.02614 1.0263 1.02677 1.02676 1.02629 1.02613 1.02613
1.02629 1.02678 1.02678 1.0263 1.02614 1.02616 1.02641 1.0272 1.02763 1.0277
1.02726 1.02644 1.02617 1.02615 1.02631 1.0268 1.0268 1.02631 1.02614 1.02614
1.0263 1.02678 1.02679 1.02632 1.02614 1.02614 1.02631 1.0268 1.0268 1.02631
1.02614 1.02614 1.02631 1.0268 1.0268 1.02631 1.02614 1.02614 1.02632 1.02679
1.02678 1.0263 1.02614 1.02614 1.02631 1.0268 1.0268 1.02631 1.02615 1.02617
1.02643 1.02725 1.02769 1.02776 1.02731 1.02646 1.02618 1.02615 1.02632 1.02681
1.02682 1.02632 1.02615 1.02614 1.02631 1.0268 1.02681 1.02633 1.02615 1.02615
1.02632 1.02681 1.02682 1.02632 1.02615 1.02615 1.02632 1.02682 1.02681 1.02631
1.02615 1.02615 1.02633 1.02681 1.0268 1.02631 1.02614 1.02615 1.02632 1.02682
1.02681 1.02632 1.02615 1.02618 1.02646 1.0273 1.02776 1.02782 1.02736 1.0265
1.0262 1.02616 1.02633 1.02683 1.02684 1.02635 1.02616 1.02615 1.02632 1.02682
1.02683 1.02635 1.02616 1.02615 1.02633 1.02683 1.02684 1.02634 1.02616 1.02616
1.02634 1.02684 1.02683 1.02633 1.02615 1.02616 1.02635 1.02683 1.02682 1.02632
1.02615 1.02616 1.02635 1.02684 1.02683 1.02633 1.02616 1.0262 1.0265 1.02736
1.02782 1.02789 1.02744 1.02656 1.02622 1.02617 1.02635 1.02685 1.02686 1.02638
1.02617 1.02616 1.02635 1.02685 1.02686 1.02637 1.02617 1.02617 1.02636 1.02686
1.02686 1.02637 1.02617 1.02617 1.02637 1.02686 1.02686 1.02636 1.02617 1.02617
1.02637 1.02686 1.02685 1.02635 1.02616 1.02617 1.02638 1.02686 1.02685 1.02635
1.02617 1.02622 1.02656 1.02744 1.02789 1.02798 1.02753 1.02664 1.02625 1.02619
1.02637 1.02688 1.02689 1.02641 1.02619 1.02618 1.02638 1.02688 1.02689 1.02641
1.02619 1.02618 1.02639 1.02689 1.02689 1.0264 1.02619 1.02619 1.0264 1.02689
1.02689 1.02639 1.02618 1.02619 1.02641 1.02689 1.02688 1.02638 1.02618 1.02619
1.02642 1.02689 1.02688 1.02637 1.02619 1.02625 1.02664 1.02753 1.02798 1.02812
1.02772 1.02688 1.02631 1.02623 1.02646 1.02693 1.02695 1.02652 1.02623 1.02621
1.02648 1.02693 1.02694 1.0265 1.02622 1.02622 1.02649 1.02694 1.02694 1.0265
1.02622 1.02622 1.0265 1.02694 1.02694 1.02649 1.02622 1.02622 1.0265 1.02694
1.02693 1.02648 1.02621 1.02623 1.02652 1.02695 1.02693 1.02646 1.02623 1.02631
1.02687 1.02772 1.02812 1.02835 1.02802 1.02724 1.02646 1.02635 1.02664 1.02705