# vtk DataFile Version 2.0
cbpRight
ASCII
DATASET POLYDATA
POINTS 1035 float
0 0 0 0 0 0.001 0 0.0005 0.001 0 0.0005
0 0 0.001 0.001 0 0.001 0 0 0.0015 0.001
0 0.0015 0 0 0.002 0.001 0 0.002 0 0
0.0025 0.001 0 0.0025 0 0 0.003 0.001 0 0.003
0 0 0.0035 0.001 0 0.0035 0 0 0.004 0.001
0 0.004 0 0 0.0045 0.001 0 0.0045 0 0
0.005 0.001 0 0.005 0 0 0.0055 0.001 0 0.0055
0 0 0.006 0.001 0 0.006 0 0 0.0065 0.001
0 0.0065 0 0 0.007 0.001 0 0.007 0 0
0.0075 0.001 0 0.0075 0 0 0.008 0.001 0 0.008
0 0 0.0085 0.001 0 0.0085 0 0 0.009 0.001
0 0.009 0 0 0.0095 0.001 0 0.0095 0 0
0.01 0.001 0 0.01 0 0 0.0105 0.001 0 0.0105
0 0 0.011 0.001 0 0.011 0 0 0.0115 0.001
0 0.0115 0 0 0.012 0.001 0 0.012 0 0
0.0125 0.001 0 0.0125 0 0 0.013 0.001 0 0.013
0 0 0.0135 0.001 0 0.0135 0 0 0.014 0.001
0 0.014 0 0 0.0145 0.001 0 0.0145 0 0
0.015 0.001 0 0.015 0 0 0.0155 0.001 0 0.0155
0 0 0.016 0.001 0 0.016 0 0 0.0165 0.001
0 0.0165 0 0 0.017 0.001 0 0.017 0 0
0.0175 0.001 0 0.0175 0 0 0.018 0.001 0 0.018
0 0 0.0185 0.001 0 0.0185 0 0 0.019 0.001
0 0.019 0 0 0.0195 0.001 0 0.0195 0 0
0.02 0.001 0 0.02 0 0 0.0205 0.001 0 0.0205
0 0 0.021 0.001 0 0.021 0 0 0.0215 0.001
0 0.0215 0 0 0.022 0.001 0 0.022 0 0
0 0.002 0 0.0005 0.002 0 0.001 0.002 0 0.0015
0.002 0 0.002 0.002 0 0.0025 0.002 0 0.003 0.002
0 0.0035 0.002 0 0.004 0.002 0 0.0045 0.002 0
0.005 0.002 0 0.0055 0.002 0 0.006 0.002 0 0.0065
0.002 0 0.007 0.002 0 0.0075 0.002 0 0.008 0.002
0 0.0085 0.002 0 0.009 0.002 0 0.0095 0.002 0
0.01 0.002 0 0.0105 0.002 0 0.011 0.002 0 0.0115
0.002 0 0.012 0.002 0 0.0125 0.002 0 0.013 0.002
0 0.0135 0.002 0 0.014 0.002 0 0.0145 0.002 0
0.015 0.002 0 0.0155 0.002 0 0.016 0.002 0 0.0165
0.002 0 0.017 0.002 0 0.0175 0.002 0 0.018 0.002
0 0.0185 0.002 0 0.019 0.002 0 0.0195 0.002 0
0.02 0.002 0 0.0205 0.002 0 0.021 0.002 0 0.0215
0.002 0 0.022 0.002 0 0 0.003 0 0.0005 0.003
0 0.001 0.003 0 0.0015 0.003 0 0.002 0.003 0
0.0025 0.003 0 0.003 0.003 0 0.0035 0.003 0 0.004
0.003 0 0.0045 0.003 0 0.005 0.003 0 0.0055 0.003
0 0.006 0.003 0 0.0065 0.003 0 0.007 0.003 0
0.0075 0.003 0 0.008 0.003 0 0.0085 0.003 0 0.009
0.003 0 0.0095 0.003 0 0.01 0.003 0 0.0105 0.003
0 0.011 0.003 0 0.0115 0.003 0 0.012 0.003 0
0.0125 0.003 0 0.013 0.003 0 0.0135 0.003 0 0.014
0.003 0 0.0145 0.003 0 0.015 0.003 0 0.0155 0.003
0 0.016 0.003 0 0.0165 0.003 0 0.017 0.003 0
0.0175 0.003 0 0.018 0.003 0 0.0185 0.003 0 0.019
0.003 0 0.0195 0.003 0 0.02 0.003 0 0.0205 0.003
0 0.021 0.003 0 0.0215 0.003 0 0.022 0.003 0
0 0.004 0 0.0005 0.004 0 0.001 0.004 0 0.0015
0.004 0 0.002 0.004 0 0.0025 0.004 0 0.003 0.004
0 0.0035 0.004 0 0.004 0.004 0 0.0045 0.004 0
0.005 0.004 0 0.0055 0.004 0 0.006 0.004 0 0.0065
0.004 0 0.007 0.004 0 0.0075 0.004 0 0.008 0.004
0 0.0085 0.004 0 0.009 0.004 0 0.0095 0.004 0
0.01 0.004 0 0.0105 0.004 0 0.011 0.004 0 0.0115
0.004 0 0.012 0.004 0 0.0125 0.004 0 0.013 0.004
0 0.0135 0.004 0 0.014 0.004 0 0.0145 0.004 0
0.015 0.004 0 0.0155 0.004 0 0.016 0.004 0 0.0165
0.004 0 0.017 0.004 0 0.0175 0.004 0 0.018 0.004
0 0.0185 0.004 0 0.019 0.004 0 0.0195 0.004 0
0.02 0.004 0 0.0205 0.004 0 0.021 0.004 0 0.0215
0.004 0 0.022 0.004 0 0 0.005 0 0.0005 0.005
0 0.001 0.005 0 0.0015 0.005 0 0.002 0.005 0
0.0025 0.005 0 0.003 0.005 0 0.0035 0.005 0 0.004
0.005 0 0.0045 0.005 0 0.005 0.005 0 0.0055 0.005
0 0.006 0.005 0 0.0065 0.005 0 0.007 0.005 0
0.0075 0.005 0 0.008 0.005 0 0.0085 0.005 0 0.009
0.005 0 0.0095 0.005 0 0.01 0.005 0 0.0105 0.005
0 0.011 0.005 0 0.0115 0.005 0 0.012 0.005 0
0.0125 0.005 0 0.013 0.005 0 0.0135 0.005 0 0.014
0.005 0 0.0145 0.005 0 0.015 0.005 0 0.0155 0.005
0 0.016 0.005 0 0.0165 0.005 0 0.017 0.005 0
0.0175 0.005 0 0.018 0.005 0 0.0185 0.005 0 0.019
0.005 0 0.0195 0.005 0 0.02 0.005 0 0.0205 0.005
0 0.021 0.005 0 0.0215 0.005 0 0.022 0.005 0
0 0.006 0 0.0005 0.006 0 0.001 0.006 0 0.0015
0.006 0 0.002 0.006 0 0.0025 0.006 0 0.003 0.006
0 0.0035 0.006 0 0.004 0.006 0 0.0045 0.006 0
0.005 0.006 0 0.0055 0.006 0 0.006 0.006 0 0.0065
0.006 0 0.007 0.006 0 0.0075 0.006 0 0.008 0.006
0 0.0085 0.006 0 0.009 0.006 0 0.0095 0.006 0
0.01 0.006 0 0.0105 0.006 0 0.011 0.006 0 0.0115
0.006 0 0.012 0.006 0 0.0125 0.006 0 0.013 0.006
0 0.0135 0.006 0 0.014 0.006 0 0.0145 0.006 0
0.015 0.006 0 0.0155 0.006 0 0.016 0.006 0 0.0165
0.006 0 0.017 0.006 0 0.0175 0.006 0 0.018 0.006
0 0.0185 0.006 0 0.019 0.006 0 0.0195 0.006 0
0.02 0.006 0 0.0205 0.006 0 0.021 0.006 0 0.0215
0.006 0 0.022 0.006 0 0 0.007 0 0.0005 0.007
0 0.001 0.007 0 0.0015 0.007 0 0.002 0.007 0
0.0025 0.007 0 0.003 0.007 0 0.0035 0.007 0 0.004
0.007 0 0.0045 0.007 0 0.005 0.007 0 0.0055 0.007
0 0.006 0.007 0 0.0065 0.007 0 0.007 0.007 0
0.0075 0.007 0 0.008 0.007 0 0.0085 0.007 0 0.009
0.007 0 0.0095 0.007 0 0.01 0.007 0 0.0105 0.007
0 0.011 0.007 0 0.0115 0.007 0 0.012 0.007 0
0.0125 0.007 0 0.013 0.007 0 0.0135 0.007 0 0.014
0.007 0 0.0145 0.007 0 0.015 0.007 0 0.0155 0.007
0 0.016 0.007 0 0.0165 0.007 0 0.017 0.007 0
0.0175 0.007 0 0.018 0.007 0 0.0185 0.007 0 0.019
0.007 0 0.0195 0.007 0 0.02 0.007 0 0.0205 0.007
0 0.021 0.007 0 0.0215 0.007 0 0.022 0.007 0
0 0.008 0 0.0005 0.008 0 0.001 0.008 0 0.0015
0.008 0 0.002 0.008 0 0.0025 0.008 0 0.003 0.008
0 0.0035 0.008 0 0.004 0.008 0 0.0045 0.008 0
0.005 0.008 0 0.0055 0.008 0 0.006 0.008 0 0.0065
0.008 0 0.007 0.008 0 0.0075 0.008 0 0.008 0.008
0 0.0085 0.008 0 0.009 0.008 0 0.0095 0.008 0
0.01 0.008 0 0.0105 0.008 0 0.011 0.008 0 0.0115
0.008 0 0.012 0.008 0 0.0125 0.008 0 0.013 0.008
0 0.0135 0.008 0 0.014 0.008 0 0.0145 0.008 0
0.015 0.008 0 0.0155 0.008 0 0.016 0.008 0 0.0165
0.008 0 0.017 0.008 0 0.0175 0.008 0 0.018 0.008
0 0.0185 0.008 0 0.019 0.008 0 0.0195 0.008 0
0.02 0.008 0 0.0205 0.008 0 0.021 0.008 0 0.0215
0.008 0 0.022 0.008 0 0 0.009 0 0.0005 0.009
0 0.001 0.009 0 0.0015 0.009 0 0.002 0.009 0
0.0025 0.009 0 0.003 0.009 0 0.0035 0.009 0 0.004
0.009 0 0.0045 0.009 0 0.005 0.009 0 0.0055 0.009
0 0.006 0.009 0 0.0065 0.009 0 0.007 0.009 0
0.0075 0.009 0 0.008 0.009 0 0.0085 0.009 0 0.009
0.009 0 0.0095 0.009 0 0.01 0.009 0 0.0105 0.009
0 0.011 0.009 0 0.0115 0.009 0 0.012 0.009 0
0.0125 0.009 0 0.013 0.009 0 0.0135 0.009 0 0.014
0.009 0 0.0145 0.009 0 0.015 0.009 0 0.0155 0.009
0 0.016 0.009 0 0.0165 0.009 0 0.017 0.009 0
0.0175 0.009 0 0.018 0.009 0 0.0185 0.009 0 0.019
0.009 0 0.0195 0.009 0 0.02 0.009 0 0.0205 0.009
0 0.021 0.009 0 0.0215 0.009 0 0.022 0.009 0
0 0.01 0 0.0005 0.01 0 0.001 0.01 0 0.0015
0.01 0 0.002 0.01 0 0.0025 0.01 0 0.003 0.01
0 0.0035 0.01 0 0.004 0.01 0 0.0045 0.01 0
0.005 0.01 0 0.0055 0.01 0 0.006 0.01 0 0.0065
0.01 0 0.007 0.01 0 0.0075 0.01 0 0.008 0.01
0 0.0085 0.01 0 0.009 0.01 0 0.0095 0.01 0
0.01 0.01 0 0.0105 0.01 0 0.011 0.01 0 0.0115
0.01 0 0.012 0.01 0 0.0125 0.01 0 0.013 0.01
0 0.0135 0.01 0 0.014 0.01 0 0.0145 0.01 0
0.015 0.01 0 0.0155 0.01 0 0.016 0.01 0 0.0165
0.01 0 0.017 0.01 0 0.0175 0.01 0 0.018 0.01
0 0.0185 0.01 0 0.019 0.01 0 0.0195 0.01 0
0.02 0.01 0 0.0205 0.01 0 0.021 0.01 0 0.0215
0.01 0 0.022 0.01 0 0 0.011 0 0.0005 0.011
0 0.001 0.011 0 0.0015 0.011 0 0.002 0.011 0
0.0025 0.011 0 0.003 0.011 0 0.0035 0.011 0 0.004
0.011 0 0.0045 0.011 0 0.005 0.011 0 0.0055 0.011
0 0.006 0.011 0 0.0065 0.011 0 0.007 0.011 0
0.0075 0.011 0 0.008 0.011 0 0.0085 0.011 0 0.009
0.011 0 0.0095 0.011 0 0.01 0.011 0 0.0105 0.011
0 0.011 0.011 0 0.0115 0.011 0 0.012 0.011 0
0.0125 0.011 0 0.013 0.011 0 0.0135 0.011 0 0.014
0.011 0 0.0145 0.011 0 0.015 0.011 0 0.0155 0.011
0 0.016 0.011 0 0.0165 0.011 0 0.017 0.011 0
0.0175 0.011 0 0.018 0.011 0 0.0185 0.011 0 0.019
0.011 0 0.0195 0.011 0 0.02 0.011 0 0.0205 0.011
0 0.021 0.011 0 0.0215 0.011 0 0.022 0.011 0
0 0.012 0 0.0005 0.012 0 0.001 0.012 0 0.0015
0.012 0 0.002 0.012 0 0.0025 0.012 0 0.003 0.012
0 0.0035 0.012 0 0.004 0.012 0 0.0045 0.012 0
0.005 0.012 0 0.0055 0.012 0 0.006 0.012 0 0.0065
0.012 0 0.007 0.012 0 0.0075 0.012 0 0.008 0.012
0 0.0085 0.012 0 0.009 0.012 0 0.0095 0.012 0
0.01 0.012 0 0.0105 0.012 0 0.011 0.012 0 0.0115
0.012 0 0.012 0.012 0 0.0125 0.012 0 0.013 0.012
0 0.0135 0.012 0 0.014 0.012 0 0.0145 0.012 0
0.015 0.012 0 0.0155 0.012 0 0.016 0.012 0 0.0165
0.012 0 0.017 0.012 0 0.0175 0.012 0 0.018 0.012
0 0.0185 0.012 0 0.019 0.012 0 0.0195 0.012 0
0.02 0.012 0 0.0205 0.012 0 0.021 0.012 0 0.0215
0.012 0 0.022 0.012 0 0 0.013 0 0.0005 0.013
0 0.001 0.013 0 0.0015 0.013 0 0.002 0.013 0
0.0025 0.013 0 0.003 0.013 0 0.0035 0.013 0 0.004
0.013 0 0.0045 0.013 0 0.005 0.013 0 0.0055 0.013
0 0.006 0.013 0 0.0065 0.013 0 0.007 0.013 0
0.0075 0.013 0 0.008 0.013 0 0.0085 0.013 0 0.009
0.013 0 0.0095 0.013 0 0.01 0.013 0 0.0105 0.013
0 0.011 0.013 0 0.0115 0.013 0 0.012 0.013 0
0.0125 0.013 0 0.013 0.013 0 0.0135 0.013 0 0.014
0.013 0 0.0145 0.013 0 0.015 0.013 0 0.0155 0.013
0 0.016 0.013 0 0.0165 0.013 0 0.017 0.013 0
0.0175 0.013 0 0.018 0.013 0 0.0185 0.013 0 0.019
0.013 0 0.0195 0.013 0 0.02 0.013 0 0.0205 0.013
0 0.021 0.013 0 0.0215 0.013 0 0.022 0.013 0
0 0.014 0 0.0005 0.014 0 0.001 0.014 0 0.0015
0.014 0 0.002 0.014 0 0.0025 0.014 0 0.003 0.014
0 0.0035 0.014 0 0.004 0.014 0 0.0045 0.014 0
0.005 0.014 0 0.0055 0.014 0 0.006 0.014 0 0.0065
0.014 0 0.007 0.014 0 0.0075 0.014 0 0.008 0.014
0 0.0085 0.014 0 0.009 0.014 0 0.0095 0.014 0
0.01 0.014 0 0.0105 0.014 0 0.011 0.014 0 0.0115
0.014 0 0.012 0.014 0 0.0125 0.014 0 0.013 0.014
0 0.0135 0.014 0 0.014 0.014 0 0.0145 0.014 0
0.015 0.014 0 0.0155 0.014 0 0.016 0.014 0 0.0165
0.014 0 0.017 0.014 0 0.0175 0.014 0 0.018 0.014
0 0.0185 0.014 0 0.019 0.014 0 0.0195 0.014 0
0.02 0.014 0 0.0205 0.014 0 0.021 0.014 0 0.0215
0.014 0 0.022 0.014 0 0 0.015 0 0.0005 0.015
0 0.001 0.015 0 0.0015 0.015 0 0.002 0.015 0
0.0025 0.015 0 0.003 0.015 0 0.0035 0.015 0 0.004
0.015 0 0.0045 0.015 0 0.005 0.015 0 0.0055 0.015
0 0.006 0.015 0 0.0065 0.015 0 0.007 0.015 0
0.0075 0.015 0 0.008 0.015 0 0.0085 0.015 0 0.009
0.015 0 0.0095 0.015 0 0.01 0.015 0 0.0105 0.015
0 0.011 0.015 0 0.0115 0.015 0 0.012 0.015 0
0.0125 0.015 0 0.013 0.015 0 0.0135 0.015 0 0.014
[...]
CELL_DATA 968
FIELD attributes 1
patchID 1 968 float
0 0 0 0 0 0 0 0 0 0 0
0 0 0 0 0 0 0 0 0 0
0 0 0 0 0 0 0 0 0 0
0 0 0 0 0 0 0 0 0 0
0 0 0 0 0 0 0 0 0 0
0 0 0 0 0 0 0 0 0 0
0 0 0 0 0 0 0 0 0 0
0 0 0 0 0 0 0 0 0 0
0 0 0 0 0 0 0 0 0 0
0 0 0 0 0 0 0 0 0 0
0 0 0 0 0 0 0 0 0 0
0 0 0 0 0 0 0 0 0 0
0 0 0 0 0 0 0 0 0 0
0 0 0 0 0 0 0 0 0 0
0 0 0 0 0 0 0 0 0 0
0 0 0 0 0 0 0 0 0 0
0 0 0 0 0 0 0 0 0 0
0 0 0 0 0 0 0 0 0 0
0 0 0 0 0 0 0 0 0 0
0 0 0 0 0 0 0 0 0 0
0 0 0 0 0 0 0 0 0 0
0 0 0 0 0 0 0 0 0 0
0 0 0 0 0 0 0 0 0 0
0 0 0 0 0 0 0 0 0 0
0 0 0 0 0 0 0 0 0 0
0 0 0 0 0 0 0 0 0 0
0 0 0 0 0 0 0 0 0 0
0 0 0 0 0 0 0 0 0 0
0 0 0 0 0 0 0 0 0 0
0 0 0 0 0 0 0 0 0 0
0 0 0 0 0 0 0 0 0 0
0 0 0 0 0 0 0 0 0 0
0 0 0 0 0 0 0 0 0 0
0 0 0 0 0 0 0 0 0 0
0 0 0 0 0 0 0 0 0 0
0 0 0 0 0 0 0 0 0 0
0 0 0 0 0 0 0 0 0 0
0 0 0 0 0 0 0 0 0 0
0 0 0 0 0 0 0 0 0 0
0 0 0 0 0 0 0 0 0 0
0 0 0 0 0 0 0 0 0 0
0 0 0 0 0 0 0 0 0 0
0 0 0 0 0 0 0 0 0 0
0 0 0 0 0 0 0 0 0 0
0 0 0 0 0 0 0 0 0 0
0 0 0 0 0 0 0 0 0 0
0 0 0 0 0 0 0 0 0 0
0 0 0 0 0 0 0 0 0 0
0 0 0 0 0 0 0 0 0 0
0 0 0 0 0 0 0 0 0 0
0 0 0 0 0 0 0 0 0 0
0 0 0 0 0 0 0 0 0 0
0 0 0 0 0 0 0 0 0 0
0 0 0 0 0 0 0 0 0 0
0 0 0 0 0 0 0 0 0 0
0 0 0 0 0 0 0 0 0 0
0 0 0 0 0 0 0 0 0 0
0 0 0 0 0 0 0 0 0 0
0 0 0 0 0 0 0 0 0 0
0 0 0 0 0 0 0 0 0 0
0 0 0 0 0 0 0 0 0 0
0 0 0 0 0 0 0 0 0 0
0 0 0 0 0 0 0 0 0 0
0 0 0 0 0 0 0 0 0 0
0 0 0 0 0 0 0 0 0 0
0 0 0 0 0 0 0 0 0 0
0 0 0 0 0 0 0 0 0 0
0 0 0 0 0 0 0 0 0 0
0 0 0 0 0 0 0 0 0 0
0 0 0 0 0 0 0 0 0 0
0 0 0 0 0 0 0 0 0 0
0 0 0 0 0 0 0 0 0 0
0 0 0 0 0 0 0 0 0 0
0 0 0 0 0 0 0 0 0 0
0 0 0 0 0 0 0 0 0 0
0 0 0 0 0 0 0 0 0 0
0 0 0 0 0 0 0 0 0 0
0 0 0 0 0 0 0 0 0 0
0 0 0 0 0 0 0 0 0 0
0 0 0 0 0 0 0 0 0 0
0 0 0 0 0 0 0 0 0 0
0 0 0 0 0 0 0 0 0 0
0 0 0 0 0 0 0 0 0 0
0 0 0 0 0 0 0 0 0 0
0 0 0 0 0 0 0 0 0 0
0 0 0 0 0 0 0 0 0 0
0 0 0 0 0 0 0 0 0 0
0 0 0 0 0 0 0 0 0 0
0 0 0 0 0 0 0 0 0 0
0 0 0 0 0 0 0 0 0 0
0 0 0 0 0 0 0 0 0 0
0 0 0 0 0 0 0 0 0 0
0 0 0 0 0 0 0 0 0 0
0 0 0 0 0 0 0 0 0 0
0 0 0 0 0 0 0 0 0 0
0 0 0 0 0 0 0 0 0 0
0 0 0 0 0 0 0 
POINT_DATA  1035
FIELD attributes 0
