# vtk DataFile Version 2.0
fuelOutlet
ASCII
DATASET POLYDATA
POINTS 1085 float
0.0039544 0.001 0.022 0.0040044 0.001 0.022 0.0040044 0.0015 0.022 0.0039544 0.0015
0.022 0.0040044 0.002 0.022 0.0039544 0.002 0.022 0.0040044 0.0025 0.022
0.0039544 0.0025 0.022 0.0040044 0.003 0.022 0.0039544 0.003 0.022 0.0039544
0.004 0.022 0.0040044 0.004 0.022 0.0040044 0.0045 0.022 0.0039544 0.0045
0.022 0.0040044 0.005 0.022 0.0039544 0.005 0.022 0.0040044 0.0055 0.022
0.0039544 0.0055 0.022 0.0040044 0.006 0.022 0.0039544 0.006 0.022 0.0039544
0.007 0.022 0.0040044 0.007 0.022 0.0040044 0.0075 0.022 0.0039544 0.0075
0.022 0.0040044 0.008 0.022 0.0039544 0.008 0.022 0.0040044 0.0085 0.022
0.0039544 0.0085 0.022 0.0040044 0.009 0.022 0.0039544 0.009 0.022 0.0039544
0.01 0.022 0.0040044 0.01 0.022 0.0040044 0.0105 0.022 0.0039544 0.0105
0.022 0.0040044 0.011 0.022 0.0039544 0.011 0.022 0.0040044 0.0115 0.022
0.0039544 0.0115 0.022 0.0040044 0.012 0.022 0.0039544 0.012 0.022 0.0039544
0.013 0.022 0.0040044 0.013 0.022 0.0040044 0.0135 0.022 0.0039544 0.0135
0.022 0.0040044 0.014 0.022 0.0039544 0.014 0.022 0.0040044 0.0145 0.022
0.0039544 0.0145 0.022 0.0040044 0.015 0.022 0.0039544 0.015 0.022 0.0039544
0.016 0.022 0.0040044 0.016 0.022 0.0040044 0.0165 0.022 0.0039544 0.0165
0.022 0.0040044 0.017 0.022 0.0039544 0.017 0.022 0.0040044 0.0175 0.022
0.0039544 0.0175 0.022 0.0040044 0.018 0.022 0.0039544 0.018 0.022 0.0039544
0.019 0.022 0.0040044 0.019 0.022 0.0040044 0.0195 0.022 0.0039544 0.0195
0.022 0.0040044 0.02 0.022 0.0039544 0.02 0.022 0.0040044 0.0205 0.022
0.0039544 0.0205 0.022 0.0040044 0.021 0.022 0.0039544 0.021 0.022 0.0040544
0.001 0.022 0.0040544 0.0015 0.022 0.0040544 0.002 0.022 0.0040544 0.0025
0.022 0.0040544 0.003 0.022 0.0040544 0.004 0.022 0.0040544 0.0045 0.022
0.0040544 0.005 0.022 0.0040544 0.0055 0.022 0.0040544 0.006 0.022 0.0040544
0.007 0.022 0.0040544 0.0075 0.022 0.0040544 0.008 0.022 0.0040544 0.0085
0.022 0.0040544 0.009 0.022 0.0040544 0.01 0.022 0.0040544 0.0105 0.022
0.0040544 0.011 0.022 0.0040544 0.0115 0.022 0.0040544 0.012 0.022 0.0040544
0.013 0.022 0.0040544 0.0135 0.022 0.0040544 0.014 0.022 0.0040544 0.0145
0.022 0.0040544 0.015 0.022 0.0040544 0.016 0.022 0.0040544 0.0165 0.022
0.0040544 0.017 0.022 0.0040544 0.0175 0.022 0.0040544 0.018 0.022 0.0040544
0.019 0.022 0.0040544 0.0195 0.022 0.0040544 0.02 0.022 0.0040544 0.0205
0.022 0.0040544 0.021 0.022 0.0041044 0.001 0.022 0.0041044 0.0015 0.022
0.0041044 0.002 0.022 0.0041044 0.0025 0.022 0.0041044 0.003 0.022 0.0041044
0.004 0.022 0.0041044 0.0045 0.022 0.0041044 0.005 0.022 0.0041044 0.0055
0.022 0.0041044 0.006 0.022 0.0041044 0.007 0.022 0.0041044 0.0075 0.022
0.0041044 0.008 0.022 0.0041044 0.0085 0.022 0.0041044 0.009 0.022 0.0041044
0.01 0.022 0.0041044 0.0105 0.022 0.0041044 0.011 0.022 0.0041044 0.0115
0.022 0.0041044 0.012 0.022 0.0041044 0.013 0.022 0.0041044 0.0135 0.022
0.0041044 0.014 0.022 0.0041044 0.0145 0.022 0.0041044 0.015 0.022 0.0041044
0.016 0.022 0.0041044 0.0165 0.022 0.0041044 0.017 0.022 0.0041044 0.0175
0.022 0.0041044 0.018 0.022 0.0041044 0.019 0.022 0.0041044 0.0195 0.022
0.0041044 0.02 0.022 0.0041044 0.0205 0.022 0.0041044 0.021 0.022 0.0041544
0.001 0.022 0.0041544 0.0015 0.022 0.0041544 0.002 0.022 0.0041544 0.0025
0.022 0.0041544 0.003 0.022 0.0041544 0.004 0.022 0.0041544 0.0045 0.022
0.0041544 0.005 0.022 0.0041544 0.0055 0.022 0.0041544 0.006 0.022 0.0041544
0.007 0.022 0.0041544 0.0075 0.022 0.0041544 0.008 0.022 0.0041544 0.0085
0.022 0.0041544 0.009 0.022 0.0041544 0.01 0.022 0.0041544 0.0105 0.022
0.0041544 0.011 0.022 0.0041544 0.0115 0.022 0.0041544 0.012 0.022 0.0041544
0.013 0.022 0.0041544 0.0135 0.022 0.0041544 0.014 0.022 0.0041544 0.0145
0.022 0.0041544 0.015 0.022 0.0041544 0.016 0.022 0.0041544 0.0165 0.022
0.0041544 0.017 0.022 0.0041544 0.0175 0.022 0.0041544 0.018 0.022 0.0041544
0.019 0.022 0.0041544 0.0195 0.022 0.0041544 0.02 0.022 0.0041544 0.0205
0.022 0.0041544 0.021 0.022 0.0042044 0.001 0.022 0.0042044 0.0015 0.022
0.0042044 0.002 0.022 0.0042044 0.0025 0.022 0.0042044 0.003 0.022 0.0042044
0.004 0.022 0.0042044 0.0045 0.022 0.0042044 0.005 0.022 0.0042044 0.0055
0.022 0.0042044 0.006 0.022 0.0042044 0.007 0.022 0.0042044 0.0075 0.022
0.0042044 0.008 0.022 0.0042044 0.0085 0.022 0.0042044 0.009 0.022 0.0042044
0.01 0.022 0.0042044 0.0105 0.022 0.0042044 0.011 0.022 0.0042044 0.0115
0.022 0.0042044 0.012 0.022 0.0042044 0.013 0.022 0.0042044 0.0135 0.022
0.0042044 0.014 0.022 0.0042044 0.0145 0.022 0.0042044 0.015 0.022 0.0042044
0.016 0.022 0.0042044 0.0165 0.022 0.0042044 0.017 0.022 0.0042044 0.0175
0.022 0.0042044 0.018 0.022 0.0042044 0.019 0.022 0.0042044 0.0195 0.022
0.0042044 0.02 0.022 0.0042044 0.0205 0.022 0.0042044 0.021 0.022 0.0042544
0.001 0.022 0.0042544 0.0015 0.022 0.0042544 0.002 0.022 0.0042544 0.0025
0.022 0.0042544 0.003 0.022 0.0042544 0.004 0.022 0.0042544 0.0045 0.022
0.0042544 0.005 0.022 0.0042544 0.0055 0.022 0.0042544 0.006 0.022 0.0042544
0.007 0.022 0.0042544 0.0075 0.022 0.0042544 0.008 0.022 0.0042544 0.0085
0.022 0.0042544 0.009 0.022 0.0042544 0.01 0.022 0.0042544 0.0105 0.022
0.0042544 0.011 0.022 0.0042544 0.0115 0.022 0.0042544 0.012 0.022 0.0042544
0.013 0.022 0.0042544 0.0135 0.022 0.0042544 0.014 0.022 0.0042544 0.0145
0.022 0.0042544 0.015 0.022 0.0042544 0.016 0.022 0.0042544 0.0165 0.022
0.0042544 0.017 0.022 0.0042544 0.0175 0.022 0.0042544 0.018 0.022 0.0042544
0.019 0.022 0.0042544 0.0195 0.022 0.0042544 0.02 0.022 0.0042544 0.0205
0.022 0.0042544 0.021 0.022 0.0043044 0.001 0.022 0.0043044 0.0015 0.022
0.0043044 0.002 0.022 0.0043044 0.0025 0.022 0.0043044 0.003 0.022 0.0043044
0.004 0.022 0.0043044 0.0045 0.022 0.0043044 0.005 0.022 0.0043044 0.0055
0.022 0.0043044 0.006 0.022 0.0043044 0.007 0.022 0.0043044 0.0075 0.022
0.0043044 0.008 0.022 0.0043044 0.0085 0.022 0.0043044 0.009 0.022 0.0043044
0.01 0.022 0.0043044 0.0105 0.022 0.0043044 0.011 0.022 0.0043044 0.0115
0.022 0.0043044 0.012 0.022 0.0043044 0.013 0.022 0.0043044 0.0135 0.022
0.0043044 0.014 0.022 0.0043044 0.0145 0.022 0.0043044 0.015 0.022 0.0043044
0.016 0.022 0.0043044 0.0165 0.022 0.0043044 0.017 0.022 0.0043044 0.0175
0.022 0.0043044 0.018 0.022 0.0043044 0.019 0.022 0.0043044 0.0195 0.022
0.0043044 0.02 0.022 0.0043044 0.0205 0.022 0.0043044 0.021 0.022 0.0043544
0.001 0.022 0.0043544 0.0015 0.022 0.0043544 0.002 0.022 0.0043544 0.0025
0.022 0.0043544 0.003 0.022 0.0043544 0.004 0.022 0.0043544 0.0045 0.022
0.0043544 0.005 0.022 0.0043544 0.0055 0.022 0.0043544 0.006 0.022 0.0043544
0.007 0.022 0.0043544 0.0075 0.022 0.0043544 0.008 0.022 0.0043544 0.0085
0.022 0.0043544 0.009 0.022 0.0043544 0.01 0.022 0.0043544 0.0105 0.022
0.0043544 0.011 0.022 0.0043544 0.0115 0.022 0.0043544 0.012 0.022 0.0043544
0.013 0.022 0.0043544 0.0135 0.022 0.0043544 0.014 0.022 0.0043544 0.0145
0.022 0.0043544 0.015 0.022 0.0043544 0.016 0.022 0.0043544 0.0165 0.022
0.0043544 0.017 0.022 0.0043544 0.0175 0.022 0.0043544 0.018 0.022 0.0043544
0.019 0.022 0.0043544 0.0195 0.022 0.0043544 0.02 0.022 0.0043544 0.0205
0.022 0.0043544 0.021 0.022 0.0044044 0.001 0.022 0.0044044 0.0015 0.022
0.0044044 0.002 0.022 0.0044044 0.0025 0.022 0.0044044 0.003 0.022 0.0044044
0.004 0.022 0.0044044 0.0045 0.022 0.0044044 0.005 0.022 0.0044044 0.0055
0.022 0.0044044 0.006 0.022 0.0044044 0.007 0.022 0.0044044 0.0075 0.022
0.0044044 0.008 0.022 0.0044044 0.0085 0.022 0.0044044 0.009 0.022 0.0044044
0.01 0.022 0.0044044 0.0105 0.022 0.0044044 0.011 0.022 0.0044044 0.0115
0.022 0.0044044 0.012 0.022 0.0044044 0.013 0.022 0.0044044 0.0135 0.022
0.0044044 0.014 0.022 0.0044044 0.0145 0.022 0.0044044 0.015 0.022 0.0044044
0.016 0.022 0.0044044 0.0165 0.022 0.0044044 0.017 0.022 0.0044044 0.0175
0.022 0.0044044 0.018 0.022 0.0044044 0.019 0.022 0.0044044 0.0195 0.022
0.0044044 0.02 0.022 0.0044044 0.0205 0.022 0.0044044 0.021 0.022 0.0044544
0.001 0.022 0.0044544 0.0015 0.022 0.0044544 0.002 0.022 0.0044544 0.0025
0.022 0.0044544 0.003 0.022 0.0044544 0.004 0.022 0.0044544 0.0045 0.022
0.0044544 0.005 0.022 0.0044544 0.0055 0.022 0.0044544 0.006 0.022 0.0044544
0.007 0.022 0.0044544 0.0075 0.022 0.0044544 0.008 0.022 0.0044544 0.0085
0.022 0.0044544 0.009 0.022 0.0044544 0.01 0.022 0.0044544 0.0105 0.022
0.0044544 0.011 0.022 0.0044544 0.0115 0.022 0.0044544 0.012 0.022 0.0044544
0.013 0.022 0.0044544 0.0135 0.022 0.0044544 0.014 0.022 0.0044544 0.0145
0.022 0.0044544 0.015 0.022 0.0044544 0.016 0.022 0.0044544 0.0165 0.022
0.0044544 0.017 0.022 0.0044544 0.0175 0.022 0.0044544 0.018 0.022 0.0044544
0.019 0.022 0.0044544 0.0195 0.022 0.0044544 0.02 0.022 0.0044544 0.0205
0.022 0.0044544 0.021 0.022 0.0045044 0.001 0.022 0.0045044 0.0015 0.022
0.0045044 0.002 0.022 0.0045044 0.0025 0.022 0.0045044 0.003 0.022 0.0045044
0.004 0.022 0.0045044 0.0045 0.022 0.0045044 0.005 0.022 0.0045044 0.0055
0.022 0.0045044 0.006 0.022 0.0045044 0.007 0.022 0.0045044 0.0075 0.022
0.0045044 0.008 0.022 0.0045044 0.0085 0.022 0.0045044 0.009 0.022 0.0045044
0.01 0.022 0.0045044 0.0105 0.022 0.0045044 0.011 0.022 0.0045044 0.0115
0.022 0.0045044 0.012 0.022 0.0045044 0.013 0.022 0.0045044 0.0135 0.022
0.0045044 0.014 0.022 0.0045044 0.0145 0.022 0.0045044 0.015 0.022 0.0045044
0.016 0.022 0.0045044 0.0165 0.022 0.0045044 0.017 0.022 0.0045044 0.0175
0.022 0.0045044 0.018 0.022 0.0045044 0.019 0.022 0.0045044 0.0195 0.022
0.0045044 0.02 0.022 0.0045044 0.0205 0.022 0.0045044 0.021 0.022 0.0045544
0.001 0.022 0.0045544 0.0015 0.022 0.0045544 0.002 0.022 0.0045544 0.0025
0.022 0.0045544 0.003 0.022 0.0045544 0.004 0.022 0.0045544 0.0045 0.022
0.0045544 0.005 0.022 0.0045544 0.0055 0.022 0.0045544 0.006 0.022 0.0045544
0.007 0.022 0.0045544 0.0075 0.022 0.0045544 0.008 0.022 0.0045544 0.0085
0.022 0.0045544 0.009 0.022 0.0045544 0.01 0.022 0.0045544 0.0105 0.022
0.0045544 0.011 0.022 0.0045544 0.0115 0.022 0.0045544 0.012 0.022 0.0045544
0.013 0.022 0.0045544 0.0135 0.022 0.0045544 0.014 0.022 0.0045544 0.0145
[...]
CELL_DATA 840
FIELD attributes 4
patchID 1 840 float
11 11 11 11 11 11 11 11 11 11 11
11 11 11 11 11 11 11 11 11 11
11 11 11 11 11 11 11 11 11 11
11 11 11 11 11 11 11 11 11 11
11 11 11 11 11 11 11 11 11 11
11 11 11 11 11 11 11 11 11 11
11 11 11 11 11 11 11 11 11 11
11 11 11 11 11 11 11 11 11 11
11 11 11 11 11 11 11 11 11 11
11 11 11 11 11 11 11 11 11 11
11 11 11 11 11 11 11 11 11 11
11 11 11 11 11 11 11 11 11 11
11 11 11 11 11 11 11 11 11 11
11 11 11 11 11 11 11 11 11 11
11 11 11 11 11 11 11 11 11 11
11 11 11 11 11 11 11 11 11 11
11 11 11 11 11 11 11 11 11 11
11 11 11 11 11 11 11 11 11 11
11 11 11 11 11 11 11 11 11 11
11 11 11 11 11 11 11 11 11 11
11 11 11 11 11 11 11 11 11 11
11 11 11 11 11 11 11 11 11 11
11 11 11 11 11 11 11 11 11 11
11 11 11 11 11 11 11 11 11 11
11 11 11 11 11 11 11 11 11 11
11 11 11 11 11 11 11 11 11 11
11 11 11 11 11 11 11 11 11 11
11 11 11 11 11 11 11 11 11 11
11 11 11 11 11 11 11 11 11 11
11 11 11 11 11 11 11 11 11 11
11 11 11 11 11 11 11 11 11 11
11 11 11 11 11 11 11 11 11 11
11 11 11 11 11 11 11 11 11 11
11 11 11 11 11 11 11 11 11 11
11 11 11 11 11 11 11 11 11 11
11 11 11 11 11 11 11 11 11 11
11 11 11 11 11 11 11 11 11 11
11 11 11 11 11 11 11 11 11 11
11 11 11 11 11 11 11 11 11 11
11 11 11 11 11 11 11 11 11 11
11 11 11 11 11 11 11 11 11 11
11 11 11 11 11 11 11 11 11 11
11 11 11 11 11 11 11 11 11 11
11 11 11 11 11 11 11 11 11 11
11 11 11 11 11 11 11 11 11 11
11 11 11 11 11 11 11 11 11 11
11 11 11 11 11 11 11 11 11 11
11 11 11 11 11 11 11 11 11 11
11 11 11 11 11 11 11 11 11 11
11 11 11 11 11 11 11 11 11 11
11 11 11 11 11 11 11 11 11 11
11 11 11 11 11 11 11 11 11 11
11 11 11 11 11 11 11 11 11 11
11 11 11 11 11 11 11 11 11 11
11 11 11 11 11 11 11 11 11 11
11 11 11 11 11 11 11 11 11 11
11 11 11 11 11 11 11 11 11 11
11 11 11 11 11 11 11 11 11 11
11 11 11 11 11 11 11 11 11 11
11 11 11 11 11 11 11 11 11 11
11 11 11 11 11 11 11 11 11 11
11 11 11 11 11 11 11 11 11 11
11 11 11 11 11 11 11 11 11 11
11 11 11 11 11 11 11 11 11 11
11 11 11 11 11 11 11 11 11 11
11 11 11 11 11 11 11 11 11 11
11 11 11 11 11 11 11 11 11 11
11 11 11 11 11 11 11 11 11 11
11 11 11 11 11 11 11 11 11 11
11 11 11 11 11 11 11 11 11 11
11 11 11 11 11 11 11 11 11 11
11 11 11 11 11 11 11 11 11 11
11 11 11 11 11 11 11 11 11 11
11 11 11 11 11 11 11 11 11 11
11 11 11 11 11 11 11 11 11 11
11 11 11 11 11 11 11 11 11 11
11 11 11 11 11 11 11 11 11 11
11 11 11 11 11 11 11 11 11 11
11 11 11 11 11 11 11 11 11 11
11 11 11 11 11 11 11 11 11 11
11 11 11 11 11 11 11 11 11 11
11 11 11 11 11 11 11 11 11 11
11 11 11 11 11 11 11 11 11 11
11 11 11 11 11 11 11 11 11 
T 1 840 float
353.198 353.208 353.208 353.197 353.196 353.206 353.205 353.194 353.193 353.204 353.205
353.193 353.193 353.204 353.204 353.193 353.193 353.205 353.204 353.193 353.194
353.205 353.206 353.196 353.197 353.208 353.208 353.198 353.193 353.199 353.2
353.191 353.191 353.198 353.197 353.188 353.188 353.197 353.197 353.188 353.187
353.196 353.196 353.187 353.188 353.197 353.197 353.188 353.188 353.197 353.198
353.191 353.191 353.2 353.2 353.193 353.185 353.189 353.189 353.184 353.184
353.188 353.186 353.179 353.18 353.186 353.186 353.18 353.178 353.185 353.185
353.178 353.18 353.186 353.186 353.18 353.179 353.186 353.188 353.183 353.184
353.189 353.189 353.185 353.175 353.175 353.176 353.173 353.174 353.174 353.173
353.167 353.169 353.173 353.173 353.169 353.167 353.171 353.171 353.167 353.169
353.173 353.173 353.169 353.167 353.173 353.174 353.173 353.173 353.176 353.175
353.175 353.163 353.159 353.16 353.161 353.161 353.159 353.157 353.154 353.157
353.157 353.158 353.156 353.154 353.156 353.156 353.154 353.156 353.158 353.158
353.156 353.154 353.157 353.159 353.161 353.161 353.16 353.159 353.163 353.148
353.142 353.143 353.148 353.148 353.142 353.14 353.139 353.142 353.141 353.141
353.142 353.139 353.139 353.139 353.139 353.141 353.141 353.141 353.142 353.139
353.14 353.142 353.148 353.148 353.143 353.142 353.148 353.134 353.124 353.125
353.134 353.133 353.125 353.123 353.124 353.128 353.123 353.124 353.127 353.124
353.121 353.121 353.125 353.127 353.123 353.123 353.128 353.124 353.122 353.124
353.133 353.134 353.126 353.124 353.134 353.118 353.106 353.108 353.119 353.118
353.107 353.105 353.11 353.113 353.106 353.106 353.112 353.11 353.104 353.104
353.11 353.112 353.106 353.106 353.113 353.11 353.105 353.107 353.118 353.12
353.108 353.106 353.118 353.104 353.09 353.091 353.105 353.104 353.09 353.089
353.096 353.099 353.089 353.09 353.098 353.096 353.087 353.087 353.096 353.098
353.089 353.089 353.099 353.096 353.089 353.09 353.104 353.105 353.091 353.09
353.104 353.09 353.074 353.076 353.092 353.091 353.075 353.073 353.083 353.086
353.074 353.074 353.085 353.083 353.072 353.072 353.083 353.085 353.074 353.074
353.086 353.083 353.073 353.075 353.09 353.092 353.076 353.074 353.09 353.078
353.06 353.062 353.08 353.078 353.061 353.06 353.071 353.074 353.06 353.06
353.073 353.072 353.058 353.058 353.072 353.073 353.06 353.06 353.074 353.071
353.059 353.061 353.078 353.08 353.062 353.06 353.078 353.067 353.048 353.049
353.069 353.067 353.048 353.047 353.061 353.063 353.047 353.048 353.063 353.061
353.046 353.046 353.062 353.062 353.048 353.048 353.063 353.061 353.047 353.048
353.067 353.069 353.049 353.048 353.067 353.057 353.038 353.039 353.059 353.057
353.038 353.037 353.052 353.054 353.037 353.038 353.054 353.053 353.036 353.036
353.053 353.053 353.037 353.037 353.054 353.052 353.037 353.038 353.057 353.059
353.039 353.038 353.057 353.049 353.029 353.03 353.051 353.049 353.029 353.028
353.045 353.046 353.028 353.029 353.046 353.045 353.028 353.028 353.046 353.046
353.029 353.029 353.046 353.045 353.028 353.029 353.049 353.051 353.03 353.029
353.049 353.042 353.022 353.023 353.044 353.042 353.022 353.022 353.039 353.04
353.022 353.022 353.04 353.039 353.021 353.021 353.039 353.039 353.022 353.022
353.04 353.039 353.022 353.022 353.042 353.044 353.023 353.022 353.042 353.037
353.017 353.017 353.038 353.037 353.017 353.016 353.034 353.035 353.016 353.017
353.034 353.034 353.016 353.016 353.034 353.034 353.016 353.016 353.035 353.034
353.016 353.017 353.037 353.038 353.017 353.017 353.037 353.033 353.012 353.013
353.033 353.032 353.012 353.012 353.03 353.031 353.012 353.012 353.03 353.03
353.012 353.012 353.03 353.03 353.012 353.012 353.031 353.03 353.012 353.013
353.032 353.033 353.013 353.012 353.033 353.029 353.009 353.01 353.03 353.029
353.009 353.009 353.027 353.028 353.009 353.009 353.027 353.027 353.009 353.009
353.027 353.027 353.009 353.009 353.028 353.027 353.009 353.009 353.029 353.03
353.01 353.009 353.029 353.027 353.007 353.008 353.027 353.026 353.007 353.007
353.025 353.025 353.007 353.007 353.025 353.025 353.007 353.007 353.025 353.025
353.007 353.007 353.025 353.025 353.007 353.007 353.026 353.027 353.008 353.007
353.027 353.025 353.006 353.007 353.025 353.025 353.006 353.006 353.023 353.024
353.006 353.006 353.024 353.024 353.006 353.006 353.024 353.024 353.006 353.006
353.024 353.023 353.006 353.006 353.025 353.025 353.006 353.006 353.025 353.024
353.006 353.006 353.024 353.024 353.006 353.005 353.023 353.023 353.006 353.006
353.023 353.023 353.005 353.005 353.023 353.023 353.006 353.005 353.023 353.023
353.006 353.006 353.024 353.024 353.006 353.006 353.024 353.024 353.006 353.007
353.024 353.024 353.006 353.006 353.023 353.023 353.006 353.006 353.023 353.023
353.006 353.006 353.023 353.023 353.006 353.006 353.023 353.023 353.006 353.007
353.024 353.024 353.007 353.006 353.024 353.026 353.008 353.008 353.025 353.025
353.008 353.008 353.024 353.024 353.008 353.008 353.024 353.024 353.008 353.008
353.024 353.024 353.008 353.008 353.024 353.024 353.008 353.008 353.025 353.025
353.008 353.008 353.025 353.028 353.011 353.012 353.027 353.027 353.011 353.011
353.027 353.026 353.011 353.011 353.026 353.026 353.011 353.011 353.026 353.026
353.011 353.011 353.027 353.027 353.011 353.011 353.027 353.028 353.012 353.011
353.028 353.032 353.016 353.017 353.032 353.031 353.016 353.016 353.031 353.03
353.016 353.016 353.03 353.03 353.016 353.016 353.03 353.03 353.016 353.016
353.031 353.031 353.016 353.016 353.031 353.032 353.017 353.016 353.032 353.039
353.023 353.025 353.038 353.037 353.024 353.024 353.038 353.037 353.023 353.023
353.037 353.036 353.024 353.023 353.036 353.037 353.023 353.023 353.037 353.038
353.024 353.024 353.037 353.038 353.024 353.024 353.039 353.048 353.035 353.036
353.047 353.047 353.035 353.036 353.048 353.046 353.035 353.035 353.046 353.046
353.035 353.035 353.046 353.046 353.034 353.034 353.046 353.047 353.036 353.035
353.046 353.047 353.035 353.035 353.048 353.063 353.052 353.053 353.062 353.061
353.052 353.052 353.063 353.06 353.051 353.051 353.06 353.06 353.051 353.051
353.06 353.06 353.051 353.05 353.06 353.062 353.053 353.052 353.06 353.062
353.052 353.052 353.063 353.086 353.077 353.078 353.084 353.083 353.077 353.077
353.085 353.081 353.076 353.076 353.082 353.081 353.076 353.076 353.081 353.081
353.076 353.075 353.082 353.084 353.078 353.077 353.082 353.084 353.078 353.077
353.086 353.121 353.117 353.117 353.119 353.118 353.115 353.115 353.118 353.116
353.114 353.114 353.116 353.116 353.113 353.113 353.116 353.116 353.114 353.113
353.116 353.118 353.116 353.115 353.117 353.119 353.117 353.117 353.121 
Tsource 1 840 float
0 0 0 0 0 0 0 0 0 0 0
0 0 0 0 0 0 0 0 0 0
0 0 0 0 0 0 0 0 0 0
0 0 0 0 0 0 0 0 0 0
0 0 0 0 0 0 0 0 0 0
0 0 0 0 0 0 0 0 0 0
0 0 0 0 0 0 0 0 0 0
0 0 0 0 0 0 0 0 0 0
0 0 0 0 0 0 0 0 0 0
0 0 0 0 0 0 0 0 0 0
0 0 0 0 0 0 0 0 0 0
0 0 0 0 0 0 0 0 0 0
0 0 0 0 0 0 0 0 0 0
0 0 0 0 0 0 0 0 0 0
0 0 0 0 0 0 0 0 0 0
0 0 0 0 0 0 0 0 0 0
0 0 0 0 0 0 0 0 0 0
0 0 0 0 0 0 0 0 0 0
0 0 0 0 0 0 0 0 0 0
0 0 0 0 0 0 0 0 0 0
0 0 0 0 0 0 0 0 0 0
0 0 0 0 0 0 0 0 0 0
0 0 0 0 0 0 0 0 0 0
0 0 0 0 0 0 0 0 0 0
0 0 0 0 0 0 0 0 0 0
0 0 0 0 0 0 0 0 0 0
0 0 0 0 0 0 0 0 0 0
0 0 0 0 0 0 0 0 0 0
0 0 0 0 0 0 0 0 0 0
0 0 0 0 0 0 0 0 0 0
0 0 0 0 0 0 0 0 0 0
0 0 0 0 0 0 0 0 0 0
0 0 0 0 0 0 0 0 0 0
0 0 0 0 0 0 0 0 0 0
0 0 0 0 0 0 0 0 0 0
0 0 0 0 0 0 0 0 0 0
0 0 0 0 0 0 0 0 0 0
0 0 0 0 0 0 0 0 0 0
0 0 0 0 0 0 0 0 0 0
0 0 0 0 0 0 0 0 0 0
0 0 0 0 0 0 0 0 0 0
0 0 0 0 0 0 0 0 0 0
0 0 0 0 0 0 0 0 0 0
0 0 0 0 0 0 0 0 0 0
0 0 0 0 0 0 0 0 0 0
0 0 0 0 0 0 0 0 0 0
0 0 0 0 0 0 0 0 0 0
0 0 0 0 0 0 0 0 0 0
0 0 0 0 0 0 0 0 0 0
0 0 0 0 0 0 0 0 0 0
0 0 0 0 0 0 0 0 0 0
0 0 0 0 0 0 0 0 0 0
0 0 0 0 0 0 0 0 0 0
0 0 0 0 0 0 0 0 0 0
0 0 0 0 0 0 0 0 0 0
0 0 0 0 0 0 0 0 0 0
0 0 0 0 0 0 0 0 0 0
0 0 0 0 0 0 0 0 0 0
0 0 0 0 0 0 0 0 0 0
0 0 0 0 0 0 0 0 0 0
0 0 0 0 0 0 0 0 0 0
0 0 0 0 0 0 0 0 0 0
0 0 0 0 0 0 0 0 0 0
0 0 0 0 0 0 0 0 0 0
0 0 0 0 0 0 0 0 0 0
0 0 0 0 0 0 0 0 0 0
0 0 0 0 0 0 0 0 0 0
0 0 0 0 0 0 0 0 0 0
0 0 0 0 0 0 0 0 0 0
0 0 0 0 0 0 0 0 0 0
0 0 0 0 0 0 0 0 0 0
0 0 0 0 0 0 0 0 0 0
0 0 0 0 0 0 0 0 0 0
0 0 0 0 0 0 0 0 0 0
0 0 0 0 0 0 0 0 0 0
0 0 0 0 0 0 0 0 0 0
0 0 0 0 0 0 0 0 0 0
0 0 0 0 0 0 0 0 0 0
0 0 0 0 0 0 0 0 0 0
0 0 0 0 0 0 0 0 0 0
0 0 0 0 0 0 0 0 0 0
0 0 0 0 0 0 0 0 0 0
0 0 0 0 0 0 0 0 0 0
0 0 0 0 0 0 0 0 0 
k 1 840 float
0.0202658 0.0202661 0.0202661 0.0202653 0.0202654 0.020266 0.0202659 0.0202648 0.020265 0.0202659 0.0202659
0.020265 0.0202648 0.0202658 0.0202658 0.0202648 0.020265 0.0202659 0.0202659 0.020265 0.0202648
0.0202659 0.020266 0.0202654 0.0202653 0.0202661 0.0202661 0.0202658 0.0202652 0.0202652 0.0202652
0.0202646 0.0202647 0.0202651 0.020265 0.0202641 0.0202643 0.020265 0.0202651 0.0202643 0.0202641
0.0202649 0.0202649 0.0202641 0.0202643 0.0202651 0.020265 0.0202643 0.0202641 0.020265 0.0202651
0.0202647 0.0202646 0.0202652 0.0202652 0.0202652 0.0202643 0.020264 0.0202641 0.0202638 0.0202639
0.020264 0.0202638 0.0202632 0.0202634 0.0202639 0.0202639 0.0202634 0.0202631 0.0202637 0.0202637
0.0202631 0.0202634 0.0202639 0.0202638 0.0202634 0.0202632 0.0202638 0.020264 0.0202639 0.0202638
0.0202641 0.020264 0.0202643 0.0202631 0.0202626 0.0202627 0.0202627 0.0202628 0.0202626 0.0202624
0.020262 0.0202622 0.0202625 0.0202626 0.0202622 0.020262 0.0202623 0.0202623 0.020262 0.0202622
0.0202626 0.0202625 0.0202623 0.020262 0.0202624 0.0202626 0.0202628 0.0202627 0.0202627 0.0202626
0.0202631 0.0202618 0.020261 0.0202611 0.0202614 0.0202615 0.0202611 0.0202609 0.0202607 0.0202609
0.0202609 0.020261 0.0202609 0.0202606 0.0202607 0.0202607 0.0202606 0.0202609 0.020261 0.0202609
0.0202609 0.0202606 0.0202609 0.0202611 0.0202615 0.0202614 0.0202611 0.020261 0.0202618 0.0202603
0.0202594 0.0202594 0.0202601 0.0202601 0.0202594 0.0202592 0.0202592 0.0202595 0.0202593 0.0202593
0.0202595 0.0202592 0.0202591 0.0202591 0.0202592 0.0202594 0.0202593 0.0202592 0.0202595 0.0202592
0.0202592 0.0202594 0.0202601 0.0202601 0.0202595 0.0202593 0.0202603 0.0202588 0.0202576 0.0202577
0.0202587 0.0202587 0.0202577 0.0202575 0.0202577 0.020258 0.0202576 0.0202576 0.020258 0.0202577
0.0202574 0.0202574 0.0202578 0.020258 0.0202576 0.0202575 0.020258 0.0202577 0.0202575 0.0202577
0.0202586 0.0202587 0.0202578 0.0202576 0.0202588 0.0202573 0.0202559 0.020256 0.0202572 0.0202572
0.020256 0.0202558 0.0202563 0.0202566 0.0202559 0.0202559 0.0202565 0.0202563 0.0202557 0.0202557
0.0202563 0.0202565 0.020256 0.0202559 0.0202566 0.0202563 0.0202558 0.020256 0.0202572 0.0202573
0.0202561 0.0202559 0.0202573 0.0202558 0.0202543 0.0202544 0.0202559 0.0202558 0.0202544 0.0202542
0.020255 0.0202552 0.0202543 0.0202543 0.0202552 0.020255 0.0202541 0.0202541 0.020255 0.0202551
0.0202543 0.0202543 0.0202552 0.0202549 0.0202542 0.0202544 0.0202558 0.0202559 0.0202545 0.0202543
0.0202558 0.0202545 0.0202529 0.020253 0.0202546 0.0202545 0.020253 0.0202528 0.0202537 0.0202539
0.0202528 0.0202528 0.0202539 0.0202538 0.0202527 0.0202527 0.0202538 0.0202539 0.0202529 0.0202528
0.020254 0.0202537 0.0202528 0.0202529 0.0202544 0.0202546 0.020253 0.0202528 0.0202545 0.0202533
0.0202515 0.0202516 0.0202534 0.0202533 0.0202516 0.0202514 0.0202526 0.0202528 0.0202514 0.0202515
0.0202527 0.0202527 0.0202514 0.0202514 0.0202527 0.0202527 0.0202515 0.0202514 0.0202528 0.0202526
0.0202514 0.0202516 0.0202533 0.0202534 0.0202516 0.0202515 0.0202533 0.0202522 0.0202504 0.0202504
0.0202523 0.0202522 0.0202504 0.0202503 0.0202516 0.0202518 0.0202503 0.0202503 0.0202517 0.0202517
0.0202502 0.0202502 0.0202517 0.0202517 0.0202503 0.0202503 0.0202518 0.0202516 0.0202503 0.0202504
0.0202522 0.0202523 0.0202505 0.0202504 0.0202522 0.0202512 0.0202494 0.0202494 0.0202514 0.0202513
0.0202495 0.0202493 0.0202507 0.0202509 0.0202493 0.0202493 0.0202508 0.0202508 0.0202492 0.0202493
0.0202508 0.0202508 0.0202493 0.0202493 0.0202509 0.0202508 0.0202493 0.0202494 0.0202513 0.0202514
0.0202494 0.0202494 0.0202513 0.0202505 0.0202486 0.0202486 0.0202505 0.0202505 0.0202486 0.0202485
0.02025 0.0202502 0.0202485 0.0202485 0.0202501 0.0202501 0.0202485 0.0202485 0.0202501 0.0202501
0.0202485 0.0202485 0.0202502 0.02025 0.0202485 0.0202486 0.0202505 0.0202506 0.0202486 0.0202486
0.0202505 0.0202498 0.0202479 0.0202479 0.0202499 0.0202498 0.020248 0.0202478 0.0202495 0.0202495
0.0202478 0.0202478 0.0202495 0.0202495 0.0202478 0.0202478 0.0202495 0.0202495 0.0202479 0.0202478
0.0202496 0.0202495 0.0202478 0.0202479 0.0202498 0.0202499 0.0202479 0.0202479 0.0202498 0.0202493
0.0202474 0.0202474 0.0202493 0.0202493 0.0202474 0.0202473 0.020249 0.0202491 0.0202473 0.0202473
0.020249 0.0202491 0.0202473 0.0202473 0.0202491 0.020249 0.0202473 0.0202473 0.0202491 0.020249
0.0202473 0.0202474 0.0202493 0.0202494 0.0202474 0.0202474 0.0202493 0.0202489 0.020247 0.020247
0.0202489 0.0202489 0.020247 0.0202469 0.0202486 0.0202487 0.0202469 0.0202469 0.0202486 0.0202487
0.0202469 0.0202469 0.0202487 0.0202486 0.020247 0.0202469 0.0202487 0.0202486 0.0202469 0.020247
0.0202489 0.0202489 0.020247 0.020247 0.0202489 0.0202485 0.0202467 0.0202467 0.0202486 0.0202486
0.0202467 0.0202466 0.0202483 0.0202484 0.0202466 0.0202466 0.0202483 0.0202484 0.0202466 0.0202467
0.0202484 0.0202483 0.0202467 0.0202466 0.0202484 0.0202483 0.0202466 0.0202467 0.0202485 0.0202486
0.0202467 0.0202467 0.0202485 0.0202483 0.0202465 0.0202465 0.0202483 0.0202483 0.0202465 0.0202465
0.0202481 0.0202482 0.0202464 0.0202464 0.0202481 0.0202482 0.0202465 0.0202465 0.0202482 0.0202481
0.0202465 0.0202465 0.0202482 0.0202481 0.0202465 0.0202465 0.0202483 0.0202483 0.0202465 0.0202465
0.0202483 0.0202481 0.0202464 0.0202464 0.0202481 0.0202481 0.0202464 0.0202463 0.020248 0.020248
0.0202463 0.0202463 0.020248 0.020248 0.0202464 0.0202464 0.020248 0.020248 0.0202463 0.0202463
0.020248 0.020248 0.0202463 0.0202464 0.0202481 0.0202482 0.0202464 0.0202464 0.0202482 0.0202481
0.0202463 0.0202464 0.020248 0.020248 0.0202464 0.0202463 0.0202479 0.0202479 0.0202463 0.0202463
0.0202479 0.0202479 0.0202463 0.0202463 0.0202479 0.0202479 0.0202463 0.0202463 0.0202479 0.0202479
0.0202463 0.0202463 0.020248 0.0202481 0.0202464 0.0202463 0.0202481 0.0202481 0.0202464 0.0202464
0.020248 0.020248 0.0202464 0.0202464 0.020248 0.0202479 0.0202464 0.0202464 0.0202479 0.020248
0.0202464 0.0202464 0.020248 0.0202479 0.0202464 0.0202464 0.020248 0.020248 0.0202464 0.0202464
0.020248 0.020248 0.0202464 0.0202464 0.0202481 0.0202482 0.0202466 0.0202466 0.0202481 0.0202481
0.0202466 0.0202465 0.0202481 0.020248 0.0202465 0.0202465 0.020248 0.020248 0.0202465 0.0202465
0.020248 0.020248 0.0202465 0.0202465 0.020248 0.0202481 0.0202465 0.0202466 0.0202481 0.0202481
0.0202466 0.0202466 0.0202482 0.0202484 0.0202468 0.0202469 0.0202483 0.0202483 0.0202468 0.0202468
0.0202483 0.0202483 0.0202468 0.0202468 0.0202483 0.0202483 0.0202468 0.0202468 0.0202483 0.0202483
0.0202468 0.0202468 0.0202483 0.0202483 0.0202468 0.0202468 0.0202483 0.0202484 0.0202469 0.0202468
0.0202484 0.0202487 0.0202473 0.0202474 0.0202487 0.0202487 0.0202473 0.0202473 0.0202487 0.0202486
0.0202473 0.0202473 0.0202486 0.0202486 0.0202473 0.0202473 0.0202486 0.0202486 0.0202473 0.0202473
0.0202486 0.0202487 0.0202473 0.0202473 0.0202487 0.0202487 0.0202474 0.0202473 0.0202487 0.0202493
0.020248 0.0202481 0.0202493 0.0202492 0.020248 0.020248 0.0202492 0.0202492 0.020248 0.020248
0.0202492 0.0202492 0.0202479 0.020248 0.0202492 0.0202492 0.020248 0.020248 0.0202492 0.0202493
0.020248 0.020248 0.0202492 0.0202493 0.0202481 0.020248 0.0202493 0.0202502 0.0202491 0.0202492
0.0202503 0.0202501 0.020249 0.020249 0.0202501 0.0202502 0.020249 0.020249 0.0202501 0.0202501
0.0202489 0.020249 0.0202501 0.0202502 0.020249 0.0202491 0.0202501 0.0202501 0.020249 0.0202491
0.0202501 0.0202503 0.0202492 0.0202491 0.0202502 0.0202515 0.0202507 0.0202507 0.0202516 0.0202514
0.0202505 0.0202505 0.0202514 0.0202515 0.0202506 0.0202505 0.0202515 0.0202514 0.0202504 0.0202505
0.0202514 0.0202515 0.0202505 0.0202506 0.0202515 0.0202514 0.0202505 0.0202506 0.0202515 0.0202516
0.0202508 0.0202507 0.0202515 0.0202536 0.020253 0.020253 0.0202537 0.0202535 0.0202529 0.0202528
0.0202534 0.0202536 0.0202528 0.0202528 0.0202535 0.0202534 0.0202527 0.0202527 0.0202534 0.0202535
0.0202528 0.0202529 0.0202535 0.0202534 0.0202528 0.0202529 0.0202536 0.0202537 0.0202531 0.0202531
0.0202536 0.0202569 0.0202566 0.0202566 0.0202569 0.0202567 0.0202564 0.0202564 0.0202566 0.0202567
0.0202563 0.0202563 0.0202566 0.0202565 0.0202562 0.0202562 0.0202565 0.0202566 0.0202563 0.0202564
0.0202567 0.0202566 0.0202563 0.0202564 0.0202568 0.0202568 0.0202566 0.0202566 0.0202569 
POINT_DATA  1085
FIELD attributes 3
T 1 1085 float
353.198 353.195 353.199 353.203 353.204 353.208 353.199 353.202 353.194 353.197 353.196
353.193 353.198 353.201 353.202 353.206 353.196 353.199 353.19 353.194 353.193
353.191 353.196 353.199 353.201 353.205 353.196 353.199 353.191 353.193 353.193
353.19 353.195 353.199 353.2 353.204 353.195 353.199 353.19 353.193 353.193
353.191 353.196 353.199 353.201 353.205 353.196 353.199 353.191 353.193 353.194
353.19 353.196 353.199 353.202 353.206 353.198 353.201 353.193 353.196 353.197
353.194 353.199 353.202 353.204 353.208 353.199 353.203 353.195 353.198 353.189
353.192 353.194 353.191 353.188 353.187 353.19 353.192 353.187 353.183 353.184