/*--------------------------------*- C++ -*----------------------------------*\
| =========                 |                                                 |
| \\      /  F ield         | OpenFOAM: The Open Source CFD Toolbox           |
|  \\    /   O peration     | Version:  4.0                                   |
|   \\  /    A nd           | Web:      www.OpenFOAM.org                      |
|    \\/     M anipulation  |                                                 |
\*---------------------------------------------------------------------------*/
FoamFile
{
    version     2.0;
    format      ascii;
    class       volScalarField;
    location    "60/air";
    object      diffH2Oair;
}
// * * * * * * * * * * * * * * * * * * * * * * * * * * * * * * * * * * * * * //

dimensions      [0 2 -1 0 0 0 0];

internalField   nonuniform List<scalar> 
39776
(
3.47885e-05
3.47886e-05
3.47889e-05
3.478922e-05
3.478958e-05
3.478998e-05
3.47904e-05
3.479081e-05
3.479124e-05
3.479166e-05
3.47921e-05
3.479253e-05
3.479298e-05
3.479343e-05
3.479388e-05
3.479435e-05
3.479482e-05
3.47953e-05
3.479579e-05
3.479629e-05
3.47968e-05
3.479732e-05
3.479785e-05
3.47984e-05
3.479896e-05
3.479953e-05
3.480012e-05
3.480074e-05
3.480142e-05
3.480222e-05
3.47886e-05
3.47887e-05
3.478899e-05
3.478932e-05
3.478969e-05
3.479008e-05
3.479048e-05
3.479089e-05
3.47913e-05
3.479172e-05
3.479214e-05
3.479256e-05
3.479299e-05
3.479343e-05
3.479387e-05
3.479432e-05
3.479477e-05
3.479523e-05
3.47957e-05
3.479618e-05
3.479666e-05
3.479715e-05
3.479766e-05
3.479817e-05
3.479869e-05
3.479923e-05
3.479977e-05
3.480034e-05
3.480096e-05
3.480169e-05
3.478851e-05
3.478861e-05
3.47889e-05
3.478922e-05
3.478957e-05
3.478995e-05
3.479034e-05
3.479073e-05
3.479113e-05
3.479153e-05
3.479193e-05
3.479233e-05
3.479274e-05
3.479315e-05
3.479356e-05
3.479397e-05
3.479439e-05
3.479481e-05
3.479523e-05
3.479565e-05
3.479608e-05
3.479651e-05
3.479694e-05
3.479737e-05
3.47978e-05
3.479824e-05
3.479868e-05
3.479912e-05
3.47996e-05
3.480023e-05
3.478829e-05
3.478841e-05
3.47887e-05
3.478903e-05
3.478939e-05
3.478978e-05
3.479018e-05
3.479059e-05
3.4791e-05
3.479142e-05
3.479184e-05
3.479227e-05
3.479271e-05
3.479315e-05
3.47936e-05
3.479406e-05
3.479452e-05
3.4795e-05
3.479548e-05
3.479598e-05
3.479649e-05
3.479701e-05
3.479755e-05
3.47981e-05
3.479867e-05
3.479926e-05
3.479987e-05
3.480051e-05
3.480121e-05
3.48021e-05
3.478821e-05
3.478833e-05
3.478864e-05
3.478899e-05
3.478937e-05
3.478978e-05
3.47902e-05
3.479063e-05
3.479107e-05
3.479152e-05
3.479197e-05
3.479243e-05
3.479291e-05
3.479339e-05
3.479388e-05
3.479438e-05
3.479489e-05
3.479541e-05
3.479595e-05
3.479649e-05
3.479706e-05
3.479764e-05
3.479823e-05
3.479884e-05
3.479947e-05
3.480012e-05
3.48008e-05
3.48015e-05
3.480225e-05
3.480319e-05
3.47884e-05
3.478852e-05
3.478883e-05
3.478916e-05
3.478954e-05
3.478994e-05
3.479035e-05
3.479077e-05
3.47912e-05
3.479164e-05
3.479208e-05
3.479253e-05
3.479298e-05
3.479345e-05
3.479392e-05
3.47944e-05
3.479488e-05
3.479538e-05
3.479589e-05
3.479641e-05
3.479693e-05
3.479747e-05
3.479802e-05
3.479858e-05
3.479916e-05
3.479974e-05
3.480034e-05
3.480096e-05
3.480162e-05
3.480243e-05
3.478839e-05
3.478852e-05
3.478882e-05
3.478916e-05
3.478953e-05
3.478993e-05
3.479034e-05
3.479076e-05
3.479118e-05
3.479161e-05
3.479204e-05
3.479248e-05
3.479293e-05
3.479338e-05
3.479384e-05
3.479431e-05
3.479479e-05
3.479527e-05
3.479576e-05
3.479625e-05
3.479676e-05
3.479727e-05
3.479779e-05
3.479832e-05
3.479885e-05
3.47994e-05
3.479995e-05
3.480051e-05
3.480112e-05
3.480184e-05
3.478823e-05
3.478836e-05
3.478867e-05
3.478902e-05
3.47894e-05
3.478982e-05
3.479024e-05
3.479067e-05
3.479112e-05
3.479157e-05
3.479203e-05
3.47925e-05
3.479297e-05
3.479346e-05
3.479396e-05
3.479447e-05
3.4795e-05
3.479553e-05
3.479608e-05
3.479665e-05
3.479724e-05
3.479784e-05
3.479846e-05
3.479911e-05
3.479977e-05
3.480046e-05
3.480118e-05
3.480193e-05
3.480274e-05
3.480374e-05
3.47881e-05
3.478823e-05
3.478854e-05
3.478889e-05
3.478927e-05
3.478969e-05
3.479012e-05
3.479056e-05
3.4791e-05
3.479146e-05
3.479192e-05
3.479239e-05
3.479287e-05
3.479337e-05
3.479387e-05
3.479438e-05
3.479491e-05
3.479545e-05
3.4796e-05
3.479657e-05
3.479715e-05
3.479775e-05
3.479836e-05
3.4799e-05
3.479966e-05
3.480034e-05
3.480104e-05
3.480177e-05
3.480256e-05
3.480353e-05
3.478831e-05
3.478844e-05
3.478875e-05
3.47891e-05
3.478947e-05
3.478988e-05
3.47903e-05
3.479072e-05
3.479115e-05
3.479159e-05
3.479204e-05
3.479249e-05
3.479295e-05
3.479342e-05
3.47939e-05
3.479439e-05
3.479488e-05
3.479539e-05
3.47959e-05
3.479643e-05
3.479697e-05
3.479752e-05
3.479808e-05
3.479865e-05
3.479923e-05
3.479982e-05
3.480043e-05
3.480106e-05
3.480172e-05
3.480253e-05
3.478833e-05
3.478846e-05
3.478877e-05
3.478911e-05
3.478949e-05
3.478989e-05
3.479031e-05
3.479074e-05
3.479117e-05
3.479161e-05
3.479206e-05
3.479252e-05
3.479298e-05
3.479345e-05
3.479392e-05
3.479441e-05
3.479491e-05
3.479541e-05
3.479593e-05
3.479646e-05
3.479699e-05
3.479754e-05
3.47981e-05
3.479867e-05
3.479924e-05
3.479984e-05
3.480044e-05
3.480106e-05
3.480172e-05
3.480252e-05
3.478814e-05
3.478828e-05
3.478859e-05
3.478895e-05
3.478933e-05
3.478975e-05
3.479019e-05
3.479063e-05
3.479108e-05
3.479154e-05
3.479201e-05
3.479249e-05
3.479298e-05
3.479347e-05
3.479398e-05
3.479451e-05
3.479504e-05
3.479559e-05
3.479615e-05
3.479673e-05
3.479733e-05
3.479795e-05
3.479858e-05
3.479924e-05
3.479992e-05
3.480062e-05
3.480135e-05
3.480211e-05
3.480293e-05
3.480393e-05
3.478804e-05
3.478818e-05
3.478849e-05
3.478884e-05
3.478923e-05
3.478964e-05
3.479008e-05
3.479052e-05
3.479097e-05
3.479142e-05
3.479189e-05
3.479236e-05
3.479285e-05
3.479334e-05
3.479385e-05
3.479437e-05
3.47949e-05
3.479545e-05
3.479601e-05
3.479658e-05
3.479717e-05
3.479778e-05
3.479841e-05
3.479905e-05
3.479972e-05
3.480042e-05
3.480113e-05
3.480188e-05
3.480269e-05
3.480367e-05
3.478823e-05
3.478836e-05
3.478867e-05
3.478902e-05
3.47894e-05
3.478981e-05
3.479022e-05
3.479065e-05
3.479108e-05
3.479152e-05
3.479197e-05
3.479243e-05
3.479289e-05
3.479336e-05
3.479384e-05
3.479433e-05
3.479482e-05
3.479533e-05
3.479584e-05
3.479637e-05
3.479691e-05
3.479745e-05
3.479801e-05
3.479858e-05
3.479916e-05
3.479976e-05
3.480036e-05
3.480099e-05
3.480165e-05
3.480245e-05
3.478824e-05
3.478837e-05
3.478868e-05
3.478902e-05
3.478939e-05
3.47898e-05
3.479022e-05
3.479064e-05
3.479108e-05
3.479152e-05
3.479197e-05
3.479242e-05
3.479288e-05
3.479335e-05
3.479383e-05
3.479432e-05
3.479482e-05
3.479532e-05
3.479584e-05
3.479637e-05
3.47969e-05
3.479745e-05
3.479801e-05
3.479858e-05
3.479916e-05
3.479975e-05
3.480036e-05
3.480098e-05
3.480165e-05
3.480245e-05
3.478804e-05
3.478818e-05
3.478849e-05
3.478884e-05
3.478923e-05
3.478964e-05
3.479007e-05
3.479051e-05
3.479096e-05
3.479142e-05
3.479189e-05
3.479236e-05
3.479285e-05
3.479334e-05
3.479385e-05
3.479437e-05
3.47949e-05
3.479544e-05
3.4796e-05
3.479657e-05
3.479716e-05
3.479777e-05
3.47984e-05
3.479905e-05
3.479972e-05
3.480041e-05
3.480112e-05
3.480187e-05
3.480268e-05
3.480366e-05
3.478812e-05
3.478825e-05
3.478857e-05
3.478891e-05
3.47893e-05
3.478971e-05
3.479014e-05
3.479059e-05
3.479104e-05
3.47915e-05
3.479197e-05
3.479245e-05
3.479294e-05
3.479344e-05
3.479395e-05
3.479447e-05
3.4795e-05
3.479555e-05
3.479612e-05
3.47967e-05
3.47973e-05
3.479791e-05
3.479855e-05
3.479921e-05
3.479989e-05
3.480059e-05
3.480132e-05
3.480208e-05
3.48029e-05
3.48039e-05
3.478829e-05
3.478843e-05
3.478874e-05
3.478908e-05
3.478945e-05
3.478985e-05
3.479027e-05
3.47907e-05
3.479113e-05
3.479157e-05
3.479202e-05
3.479248e-05
3.479294e-05
3.479341e-05
3.479389e-05
3.479438e-05
3.479487e-05
3.479538e-05
3.47959e-05
3.479642e-05
3.479696e-05
3.479751e-05
3.479807e-05
3.479864e-05
3.479922e-05
3.479981e-05
3.480041e-05
3.480103e-05
3.480169e-05
3.48025e-05
3.478828e-05
3.478841e-05
3.478872e-05
3.478906e-05
3.478943e-05
3.478984e-05
3.479026e-05
3.479068e-05
3.479111e-05
3.479155e-05
3.4792e-05
3.479246e-05
3.479292e-05
3.479339e-05
3.479387e-05
3.479436e-05
3.479485e-05
3.479536e-05
3.479588e-05
3.479641e-05
3.479695e-05
3.479749e-05
3.479805e-05
3.479863e-05
3.479921e-05
3.47998e-05
3.480041e-05
3.480104e-05
3.48017e-05
3.480251e-05
3.478807e-05
3.47882e-05
3.478851e-05
3.478886e-05
3.478924e-05
3.478966e-05
3.479009e-05
3.479053e-05
3.479097e-05
3.479143e-05
3.479189e-05
3.479237e-05
3.479285e-05
3.479334e-05
3.479384e-05
3.479436e-05
3.479488e-05
3.479542e-05
3.479597e-05
3.479654e-05
3.479712e-05
3.479772e-05
3.479834e-05
3.479898e-05
3.479963e-05
3.480031e-05
3.480101e-05
3.480175e-05
3.480253e-05
3.48035e-05
3.47882e-05
3.478833e-05
3.478864e-05
3.478899e-05
3.478938e-05
3.478979e-05
3.479021e-05
3.479065e-05
3.479109e-05
3.479154e-05
3.4792e-05
3.479247e-05
3.479295e-05
3.479344e-05
3.479393e-05
3.479444e-05
3.479497e-05
3.479551e-05
3.479606e-05
3.479663e-05
3.479721e-05
3.479781e-05
3.479843e-05
3.479908e-05
3.479975e-05
3.480044e-05
3.480115e-05
3.480191e-05
3.480272e-05
3.480371e-05
3.478837e-05
3.478849e-05
3.47888e-05
3.478913e-05
3.478949e-05
3.478989e-05
3.47903e-05
3.479072e-05
3.479115e-05
3.479158e-05
3.479201e-05
3.479245e-05
3.47929e-05
3.479335e-05
3.479382e-05
3.479428e-05
3.479476e-05
3.479524e-05
3.479573e-05
3.479623e-05
3.479673e-05
3.479725e-05
3.479777e-05
3.479829e-05
3.479883e-05
3.479937e-05
3.479992e-05
3.480049e-05
3.480109e-05
3.480182e-05
3.478837e-05
3.478849e-05
3.47888e-05
3.478914e-05
3.478951e-05
3.478991e-05
3.479032e-05
3.479075e-05
3.479117e-05
3.479161e-05
3.479205e-05
3.47925e-05
3.479296e-05
3.479342e-05
3.479389e-05
3.479437e-05
3.479486e-05
3.479535e-05
3.479586e-05
3.479638e-05
3.479691e-05
3.479744e-05
3.479799e-05
3.479856e-05
3.479913e-05
3.479972e-05
3.480032e-05
3.480094e-05
3.48016e-05
3.480241e-05
3.478818e-05
3.47883e-05
3.478861e-05
3.478896e-05
3.478934e-05
3.478975e-05
3.479017e-05
3.47906e-05
3.479104e-05
3.479149e-05
3.479194e-05
3.479241e-05
3.479288e-05
3.479336e-05
3.479385e-05
3.479435e-05
3.479486e-05
3.479538e-05
3.479592e-05
3.479647e-05
3.479703e-05
3.479761e-05
3.479821e-05
3.479882e-05
3.479945e-05
3.48001e-05
3.480077e-05
3.480147e-05
3.480223e-05
3.480317e-05
3.478826e-05
3.478837e-05
3.478867e-05
3.478899e-05
3.478935e-05
3.478974e-05
3.479015e-05
3.479056e-05
3.479097e-05
3.479139e-05
3.479181e-05
3.479224e-05
3.479267e-05
3.479312e-05
3.479357e-05
3.479402e-05
3.479449e-05
3.479496e-05
3.479545e-05
3.479595e-05
3.479646e-05
3.479698e-05
3.479751e-05
3.479807e-05
3.479864e-05
3.479922e-05
3.479983e-05
3.480047e-05
3.480117e-05
3.480207e-05
3.478847e-05
3.478858e-05
3.478887e-05
3.478919e-05
3.478954e-05
3.478992e-05
3.479031e-05
3.479071e-05
3.47911e-05
3.47915e-05
3.47919e-05
3.47923e-05
3.47927e-05
3.479311e-05
3.479352e-05
3.479394e-05
3.479435e-05
3.479477e-05
3.479519e-05
3.479562e-05
3.479605e-05
3.479647e-05
3.479691e-05
3.479734e-05
3.479777e-05
3.47982e-05
3.479864e-05
3.479909e-05
3.479956e-05
3.480019e-05
3.478859e-05
3.478869e-05
3.478898e-05
3.47893e-05
3.478966e-05
3.479005e-05
3.479045e-05
3.479086e-05
3.479127e-05
3.479168e-05
3.47921e-05
3.479253e-05
3.479296e-05
3.479339e-05
3.479383e-05
3.479428e-05
3.479473e-05
3.47952e-05
3.479566e-05
3.479614e-05
3.479663e-05
3.479712e-05
3.479762e-05
3.479813e-05
3.479866e-05
3.479919e-05
3.479974e-05
3.48003e-05
3.480092e-05
3.480165e-05
3.478847e-05
3.478857e-05
3.478886e-05
3.478919e-05
3.478955e-05
3.478995e-05
3.479036e-05
3.479078e-05
3.47912e-05
3.479163e-05
3.479206e-05
3.47925e-05
3.479294e-05
3.479339e-05
3.479385e-05
3.479432e-05
3.479479e-05
3.479527e-05
3.479576e-05
3.479626e-05
3.479677e-05
3.479729e-05
3.479782e-05
3.479836e-05
3.479892e-05
3.47995e-05
3.480009e-05
3.48007e-05
3.480139e-05
3.480219e-05
3.479587e-05
3.479553e-05
3.479539e-05
3.479539e-05
3.479544e-05
3.479552e-05
3.479563e-05
3.479575e-05
3.479589e-05
3.479606e-05
3.479624e-05
3.479643e-05
3.479665e-05
3.479688e-05
3.479713e-05
3.479739e-05
3.479768e-05
3.479798e-05
3.479831e-05
3.479866e-05
3.479903e-05
3.479942e-05
3.479984e-05
3.480028e-05
3.480075e-05
3.480125e-05
3.480178e-05
3.480235e-05
3.480298e-05
3.480381e-05
3.479582e-05
3.479548e-05
3.479534e-05
3.479531e-05
3.479535e-05
3.479542e-05
3.479552e-05
3.479564e-05
3.479577e-05
3.479591e-05
3.479607e-05
3.479625e-05
3.479644e-05
3.479664e-05
3.479685e-05
3.479708e-05
3.479732e-05
3.479757e-05
3.479783e-05
3.479811e-05
3.47984e-05
3.479871e-05
3.479903e-05
3.479936e-05
3.47997e-05
3.480005e-05
3.480042e-05
3.480081e-05
3.480123e-05
3.480185e-05
3.479566e-05
3.479531e-05
3.479517e-05
3.479513e-05
3.479516e-05
3.479522e-05
3.47953e-05
3.47954e-05
3.479552e-05
3.479564e-05
3.479578e-05
3.479594e-05
3.47961e-05
3.479628e-05
3.479646e-05
3.479666e-05
3.479687e-05
3.479709e-05
3.479732e-05
3.479756e-05
3.479782e-05
3.479808e-05
3.479836e-05
3.479865e-05
3.479896e-05
3.479928e-05
3.479961e-05
3.479997e-05
3.48004e-05
3.480092e-05
3.479562e-05
3.479528e-05
3.479515e-05
3.479513e-05
3.479517e-05
3.479524e-05
3.479533e-05
3.479544e-05
3.479557e-05
3.47957e-05
3.479585e-05
3.479602e-05
3.479619e-05
3.479638e-05
3.479659e-05
3.47968e-05
3.479703e-05
3.479727e-05
3.479753e-05
3.47978e-05
3.479808e-05
3.479837e-05
3.479868e-05
3.479901e-05
3.479935e-05
3.47997e-05
3.480008e-05
3.480048e-05
3.480091e-05
3.480151e-05
3.479446e-05
3.479413e-05
3.4794e-05
3.479397e-05
3.4794e-05
3.479407e-05
3.479416e-05
3.479426e-05
3.479438e-05
3.47945e-05
3.479465e-05
3.47948e-05
3.479497e-05
3.479515e-05
3.479535e-05
3.479555e-05
3.479577e-05
3.4796e-05
3.479625e-05
3.479651e-05
3.479679e-05
3.479708e-05
3.479738e-05
3.47977e-05
3.479804e-05
3.47984e-05
3.479878e-05
3.479919e-05
3.479963e-05
3.480023e-05
3.479445e-05
3.479412e-05
3.479399e-05
3.479394e-05
3.479395e-05
3.4794e-05
3.479408e-05
3.479418e-05
3.479429e-05
3.479441e-05
3.479454e-05
3.479467e-05
3.479482e-05
3.479499e-05
3.479516e-05
3.479534e-05
3.479554e-05
3.479574e-05
3.479595e-05
3.479618e-05
3.479641e-05
3.479666e-05
3.479691e-05
3.479717e-05
3.479743e-05
3.479771e-05
3.4798e-05
3.47983e-05
3.479863e-05
3.479911e-05
3.479439e-05
3.479406e-05
3.479392e-05
3.479387e-05
3.479388e-05
3.479393e-05
3.479401e-05
3.47941e-05
3.47942e-05
3.479431e-05
3.479443e-05
3.479457e-05
3.479471e-05
3.479487e-05
3.479504e-05
3.479521e-05
3.479539e-05
3.479559e-05
3.479579e-05
3.479601e-05
3.479624e-05
3.479647e-05
3.479672e-05
3.479698e-05
3.479725e-05
3.479753e-05
3.479783e-05
3.479814e-05
3.479851e-05
3.479905e-05
3.479439e-05
3.479407e-05
3.479394e-05
3.47939e-05
3.479392e-05
3.479399e-05
3.479407e-05
3.479417e-05
3.479428e-05
3.47944e-05
3.479453e-05
3.479466e-05
3.479482e-05
3.479498e-05
3.479516e-05
3.479536e-05
3.479556e-05
3.479577e-05
3.479599e-05
3.479623e-05
3.479648e-05
3.479674e-05
3.479702e-05
3.479731e-05
3.479761e-05
3.479793e-05
3.479827e-05
3.479863e-05
3.479901e-05
3.479955e-05
3.479409e-05
3.479377e-05
3.479365e-05
3.479361e-05
3.479363e-05
3.479369e-05
3.479377e-05
3.479386e-05
3.479396e-05
3.479408e-05
3.479421e-05
3.479436e-05
3.479452e-05
3.479469e-05
3.479487e-05
3.479506e-05
3.479526e-05
3.479548e-05
3.479571e-05
3.479596e-05
3.479622e-05
3.47965e-05
3.479679e-05
3.479709e-05
3.479742e-05
3.479776e-05
3.479811e-05
3.47985e-05
3.479891e-05
3.47995e-05
3.479403e-05
3.47937e-05
3.479357e-05
3.479352e-05
3.479353e-05
3.479357e-05
3.479364e-05
3.479373e-05
3.479384e-05
3.479395e-05
3.479407e-05
3.479421e-05
3.479435e-05
3.47945e-05
3.479467e-05
3.479484e-05
3.479503e-05
3.479522e-05
3.479542e-05
3.479563e-05
3.479585e-05
3.479608e-05
3.479632e-05
3.479657e-05
3.479682e-05
3.479709e-05
3.479736e-05
3.479764e-05
3.479796e-05
3.479845e-05
3.479403e-05
3.47937e-05
3.479357e-05
3.479352e-05
3.479353e-05
3.479358e-05
3.479364e-05
3.479372e-05
3.479382e-05
3.479393e-05
3.479405e-05
3.479418e-05
3.479432e-05
3.479447e-05
3.479464e-05
3.479481e-05
3.479499e-05
3.479518e-05
3.479538e-05
3.479559e-05
3.479581e-05
3.479603e-05
3.479627e-05
3.479651e-05
3.479676e-05
3.479703e-05
3.47973e-05
3.479759e-05
3.479792e-05
3.479841e-05
3.479407e-05
3.479376e-05
3.479363e-05
3.479359e-05
3.479361e-05
3.479366e-05
3.479374e-05
3.479382e-05
3.479391e-05
3.479403e-05
3.479415e-05
3.479429e-05
3.479445e-05
3.479461e-05
3.479479e-05
3.479498e-05
3.479518e-05
3.479539e-05
3.479562e-05
3.479586e-05
3.479611e-05
3.479638e-05
3.479666e-05
3.479695e-05
3.479726e-05
3.479759e-05
3.479793e-05
3.479829e-05
3.479869e-05
3.479923e-05
3.479398e-05
3.479367e-05
3.479354e-05
3.479351e-05
3.479353e-05
3.479359e-05
3.479366e-05
3.479376e-05
3.479386e-05
3.479398e-05
3.479411e-05
3.479426e-05
3.479441e-05
3.479457e-05
3.479475e-05
3.479494e-05
3.479514e-05
3.479536e-05
3.479559e-05
3.479583e-05
3.479609e-05
3.479636e-05
3.479664e-05
3.479694e-05
3.479726e-05
3.479759e-05
3.479794e-05
3.479832e-05
3.479872e-05
3.479929e-05
3.479395e-05
3.479363e-05
3.479349e-05
3.479344e-05
3.479345e-05
3.47935e-05
3.479358e-05
3.479367e-05
3.479377e-05
3.479387e-05
3.479399e-05
3.479412e-05
3.479426e-05
3.479441e-05
3.479457e-05
3.479475e-05
3.479493e-05
3.479512e-05
3.479532e-05
3.479554e-05
3.479576e-05
3.479598e-05
3.479622e-05
3.479647e-05
3.479672e-05
3.479699e-05
3.479726e-05
3.479755e-05
3.479787e-05
3.479836e-05
3.479395e-05
3.479363e-05
3.479349e-05
3.479345e-05
3.479345e-05
3.47935e-05
3.479357e-05
3.479365e-05
3.479376e-05
3.479387e-05
3.479399e-05
3.479412e-05
3.479427e-05
3.479442e-05
3.479458e-05
3.479476e-05
3.479494e-05
3.479513e-05
3.479534e-05
3.479555e-05
3.479577e-05
3.479599e-05
3.479623e-05
3.479648e-05
3.479673e-05
3.4797e-05
3.479727e-05
3.479756e-05
3.479788e-05
3.479837e-05
3.479399e-05
3.479367e-05
3.479355e-05
3.479351e-05
3.479354e-05
3.479359e-05
3.479367e-05
3.479376e-05
3.479387e-05
3.479399e-05
3.479412e-05
3.479426e-05
3.479441e-05
3.479458e-05
3.479476e-05
3.479496e-05
3.479516e-05
3.479537e-05
3.47956e-05
3.479584e-05
3.47961e-05
3.479637e-05
3.479665e-05
3.479695e-05
3.479727e-05
3.47976e-05
3.479795e-05
3.479832e-05
3.479873e-05
3.479929e-05
3.479404e-05
3.479373e-05
3.47936e-05
3.479356e-05
3.479358e-05
3.479364e-05
3.479371e-05
3.47938e-05
3.47939e-05
3.479401e-05
3.479414e-05
3.479429e-05
3.479444e-05
3.479461e-05
3.479478e-05
3.479497e-05
3.479517e-05
3.479539e-05
3.479561e-05
3.479585e-05
3.47961e-05
3.479637e-05
3.479665e-05
3.479694e-05
3.479725e-05
3.479758e-05
3.479792e-05
3.479829e-05
3.479868e-05
3.479923e-05
3.4794e-05
3.479368e-05
3.479354e-05
3.479349e-05
3.479351e-05
3.479355e-05
3.479362e-05
3.47937e-05
3.479379e-05
3.47939e-05
3.479402e-05
3.479416e-05
3.47943e-05
3.479446e-05
3.479462e-05
3.479479e-05
3.479497e-05
3.479516e-05
3.479536e-05
3.479557e-05
3.479579e-05
3.479601e-05
3.479625e-05
3.479649e-05
3.479675e-05
3.479701e-05
3.479729e-05
3.479758e-05
3.479791e-05
3.479841e-05
3.4794e-05
3.479367e-05
3.479354e-05
3.479349e-05
3.479351e-05
3.479356e-05
3.479363e-05
3.479372e-05
3.479382e-05
3.479394e-05
3.479406e-05
3.47942e-05
3.479434e-05
3.479449e-05
3.479465e-05
3.479482e-05
3.4795e-05
3.479519e-05
3.479539e-05
3.47956e-05
3.479582e-05
3.479604e-05
3.479628e-05
3.479653e-05
3.479678e-05
3.479704e-05
3.479731e-05
3.47976e-05
3.479792e-05
3.47984e-05
3.479406e-05
3.479374e-05
3.479361e-05
3.479358e-05
3.47936e-05
3.479366e-05
3.479374e-05
3.479383e-05
3.479394e-05
3.479405e-05
3.479419e-05
3.479433e-05
3.479449e-05
3.479465e-05
3.479483e-05
3.479503e-05
3.479523e-05
3.479545e-05
3.479569e-05
3.479593e-05
3.47962e-05
3.479647e-05
3.479677e-05
3.479707e-05
3.479739e-05
3.479774e-05
3.479809e-05
3.479848e-05
3.479889e-05
3.479947e-05
3.479435e-05
3.479403e-05
3.47939e-05
3.479386e-05
3.479388e-05
3.479394e-05
3.479403e-05
3.479413e-05
3.479424e-05
3.479436e-05
3.479448e-05
3.479462e-05
3.479478e-05
3.479495e-05
3.479513e-05
3.479532e-05
3.479552e-05
3.479574e-05
3.479596e-05
3.47962e-05
3.479645e-05
3.479671e-05
3.479699e-05
3.479728e-05
3.479759e-05
3.479791e-05
3.479824e-05
3.47986e-05
3.479899e-05
3.479953e-05
3.479436e-05
3.479403e-05
3.479389e-05
3.479385e-05
3.479386e-05
3.479391e-05
3.479397e-05
3.479406e-05
3.479416e-05
3.479427e-05
3.479439e-05
3.479453e-05
3.479468e-05
3.479483e-05
3.479499e-05
3.479517e-05
3.479535e-05
3.479554e-05
3.479575e-05
3.479596e-05
3.479619e-05
3.479643e-05
3.479667e-05
3.479693e-05
3.47972e-05
3.479748e-05
3.479777e-05
3.479809e-05
3.479845e-05
3.4799e-05
3.479441e-05
3.479408e-05
3.479394e-05
3.47939e-05
3.479392e-05
3.479397e-05
3.479405e-05
3.479414e-05
3.479424e-05
3.479435e-05
3.479448e-05
3.479463e-05
3.479478e-05
3.479494e-05
3.479512e-05
3.47953e-05
3.47955e-05
3.47957e-05
3.479592e-05
3.479614e-05
3.479637e-05
3.479661e-05
3.479687e-05
3.479713e-05
3.479739e-05
3.479767e-05
3.479796e-05
3.479826e-05
3.479859e-05
3.479908e-05
3.479442e-05
3.479409e-05
3.479396e-05
3.479392e-05
3.479395e-05
3.479402e-05
3.479412e-05
3.479422e-05
3.479434e-05
3.479446e-05
3.479461e-05
3.479476e-05
3.479493e-05
3.479511e-05
3.47953e-05
3.479551e-05
3.479573e-05
3.479596e-05
3.479621e-05
3.479647e-05
3.479674e-05
3.479703e-05
3.479734e-05
3.479766e-05
3.4798e-05
3.479836e-05
3.479873e-05
3.479914e-05
3.479958e-05
3.480018e-05
3.479557e-05
3.479524e-05
3.47951e-05
3.479508e-05
3.479512e-05
3.47952e-05
3.479529e-05
3.47954e-05
3.479553e-05
3.479567e-05
3.479581e-05
3.479598e-05
3.479616e-05
3.479635e-05
3.479655e-05
3.479677e-05
3.4797e-05
3.479724e-05
3.479749e-05
3.479776e-05
3.479804e-05
3.479834e-05
3.479865e-05
3.479898e-05
3.479932e-05
3.479968e-05
3.480005e-05
3.480045e-05
3.480089e-05
3.480149e-05
3.47956e-05
3.479525e-05
3.479511e-05
3.479507e-05
3.47951e-05
3.479516e-05
3.479525e-05
3.479536e-05
3.479547e-05
3.47956e-05
3.479574e-05
3.47959e-05
3.479606e-05
3.479624e-05
3.479643e-05
3.479663e-05
3.479684e-05
3.479706e-05
3.479729e-05
3.479753e-05
3.479779e-05
3.479805e-05
3.479833e-05
3.479862e-05
3.479893e-05
3.479925e-05
3.479959e-05
3.479995e-05
3.480037e-05
3.480089e-05
3.479578e-05
3.479543e-05
3.479529e-05
3.479528e-05
3.479532e-05
3.479539e-05
3.479549e-05
3.479561e-05
3.479574e-05
3.479588e-05
3.479604e-05
3.479622e-05
3.47964e-05
3.47966e-05
3.479682e-05
3.479704e-05
3.479728e-05
3.479754e-05
3.47978e-05
3.479808e-05
3.479837e-05
3.479868e-05
3.4799e-05
3.479933e-05
3.479967e-05
3.480002e-05
3.480039e-05
3.480078e-05
3.48012e-05
3.480182e-05
3.479583e-05
3.479549e-05
3.479536e-05
3.479535e-05
3.479541e-05
3.479549e-05
3.47956e-05
3.479572e-05
3.479586e-05
3.479602e-05
3.47962e-05
3.47964e-05
3.479661e-05
3.479684e-05
3.479709e-05
3.479736e-05
3.479764e-05
3.479795e-05
3.479828e-05
3.479862e-05
3.479899e-05
3.479939e-05
3.479981e-05
3.480025e-05
3.480072e-05
3.480122e-05
3.480175e-05
3.480232e-05
3.480294e-05
3.480377e-05
3.478998e-05
3.47896e-05
3.478935e-05
3.478918e-05
3.478903e-05
3.478888e-05
3.478876e-05
3.478864e-05
3.478854e-05
3.478844e-05
3.478836e-05
3.478827e-05
3.47882e-05
3.478812e-05
3.478805e-05
3.478799e-05
3.478793e-05
3.478788e-05
3.478783e-05
3.478778e-05
3.478775e-05
3.478772e-05
3.478769e-05
3.478768e-05
3.478768e-05
3.478769e-05
3.478771e-05
3.478776e-05
3.478782e-05
3.478799e-05
3.478997e-05
3.478958e-05
3.478932e-05
3.478914e-05
3.478896e-05
3.47888e-05
3.478864e-05
3.478849e-05
3.478836e-05
3.478823e-05
3.478811e-05
3.4788e-05
3.478788e-05
3.478777e-05
3.478765e-05
3.478754e-05
3.478742e-05
3.478731e-05
3.478719e-05
3.478707e-05
3.478695e-05
3.478684e-05
3.478672e-05
3.47866e-05
3.478647e-05
3.478635e-05
3.478623e-05
3.478611e-05
3.478601e-05
3.478599e-05
3.478982e-05
3.478943e-05
3.478917e-05
3.478897e-05
3.478879e-05
3.478861e-05
3.478844e-05
3.478827e-05
3.478812e-05
3.478799e-05
3.478785e-05
3.478771e-05
3.478758e-05
3.478744e-05
3.47873e-05
3.478716e-05
3.478702e-05
3.478687e-05
3.478673e-05
3.478658e-05
3.478642e-05
3.478626e-05
3.47861e-05
3.478593e-05
3.478576e-05
3.478558e-05
3.478539e-05
3.478519e-05
3.478501e-05
3.47849e-05
3.478968e-05
3.478931e-05
3.478905e-05
3.478885e-05
3.478867e-05
3.478848e-05
3.478831e-05
3.478814e-05
3.478799e-05
3.478784e-05
3.478769e-05
3.478755e-05
3.47874e-05
3.478725e-05
3.47871e-05
3.478695e-05
3.478679e-05
3.478663e-05
3.478646e-05
3.47863e-05
3.478612e-05
3.478595e-05
3.478576e-05
3.478557e-05
3.478538e-05
3.478517e-05
3.478496e-05
3.478475e-05
3.478454e-05
3.478437e-05
3.478756e-05
3.478719e-05
3.478693e-05
3.478673e-05
3.478653e-05
3.478633e-05
3.478614e-05
3.478595e-05
3.478577e-05
3.47856e-05
3.478543e-05
3.478526e-05
3.478509e-05
3.478491e-05
3.478474e-05
3.478457e-05
3.478439e-05
3.478421e-05
3.478403e-05
3.478384e-05
3.478366e-05
3.478347e-05
3.478327e-05
3.478308e-05
3.478288e-05
3.478269e-05
3.478249e-05
3.478229e-05
3.47821e-05
3.478194e-05
3.478757e-05
3.478719e-05
3.478693e-05
3.478672e-05
3.478653e-05
3.478632e-05
3.478611e-05
3.478592e-05
3.478573e-05
3.478555e-05
3.478537e-05
3.478519e-05
3.478501e-05
3.478483e-05
3.478464e-05
3.478446e-05
3.478426e-05
3.478406e-05
3.478386e-05
3.478365e-05
3.478344e-05
3.478322e-05
3.478299e-05
3.478276e-05
3.478252e-05
3.478228e-05
3.478203e-05
3.478177e-05
3.478152e-05
3.47813e-05
3.478749e-05
3.478712e-05
3.478685e-05
3.478665e-05
3.478644e-05
3.478623e-05
3.478603e-05
3.478583e-05
3.478564e-05
3.478546e-05
3.478528e-05
3.47851e-05
3.478492e-05
3.478473e-05
3.478455e-05
3.478435e-05
3.478416e-05
3.478396e-05
3.478375e-05
3.478354e-05
3.478333e-05
3.47831e-05
3.478288e-05
3.478264e-05
3.47824e-05
3.478216e-05
3.478191e-05
3.478165e-05
3.478138e-05
3.478114e-05
3.478738e-05
3.478702e-05
3.478675e-05
3.478654e-05
3.478634e-05
3.478612e-05
3.478591e-05
3.478571e-05
3.478551e-05
3.478533e-05
3.478514e-05
3.478495e-05
3.478476e-05
3.478456e-05
3.478435e-05
3.478414e-05
3.478393e-05
3.478371e-05
3.478349e-05
3.478326e-05
3.478302e-05
3.478278e-05
3.478252e-05
3.478226e-05
3.478198e-05
3.47817e-05
3.47814e-05
3.47811e-05
3.47808e-05
3.478054e-05
3.478667e-05
3.478631e-05
3.478604e-05
3.478584e-05
3.478564e-05
3.478542e-05
3.478522e-05
3.478502e-05
3.478483e-05
3.478464e-05
3.478445e-05
3.478426e-05
3.478407e-05
3.478387e-05
3.478368e-05
3.478347e-05
3.478327e-05
3.478306e-05
3.478284e-05
3.478262e-05
3.478239e-05
3.478216e-05
3.478192e-05
3.478168e-05
3.478142e-05
3.478117e-05
3.47809e-05
3.478064e-05
3.478038e-05
3.478014e-05
3.478674e-05
3.478637e-05
3.478611e-05
3.47859e-05
3.478569e-05
3.478548e-05
3.478527e-05
3.478506e-05
3.478487e-05
3.478468e-05
3.478449e-05
3.478429e-05
3.47841e-05
3.47839e-05
3.478369e-05
3.478348e-05
3.478327e-05
3.478305e-05
3.478283e-05
3.478259e-05
3.478236e-05
3.478211e-05
3.478186e-05
3.478161e-05
3.478134e-05
3.478107e-05
3.478079e-05
3.478051e-05
3.478022e-05
3.477995e-05
3.47867e-05
3.478633e-05
3.478606e-05
3.478585e-05
3.478565e-05
3.478543e-05
3.478522e-05
3.478502e-05
3.478483e-05
3.478464e-05
3.478445e-05
3.478426e-05
3.478406e-05
3.478386e-05
3.478365e-05
3.478344e-05
3.478323e-05
3.478301e-05
3.478279e-05
3.478255e-05
3.478232e-05
3.478207e-05
3.478182e-05
3.478156e-05
3.47813e-05
3.478103e-05
3.478075e-05
3.478046e-05
3.478017e-05
3.477989e-05
3.478658e-05
3.478622e-05
3.478596e-05
3.478575e-05
3.478555e-05
3.478533e-05
3.478513e-05
3.478493e-05
3.478474e-05
3.478455e-05
3.478435e-05
3.478416e-05
3.478396e-05
3.478376e-05
3.478356e-05
3.478334e-05
3.478313e-05
3.478291e-05
3.478268e-05
3.478244e-05
3.47822e-05
3.478195e-05
3.478169e-05
3.478143e-05
3.478115e-05
3.478087e-05
3.478058e-05
3.478029e-05
3.478e-05
3.477975e-05
3.478656e-05
3.47862e-05
3.478594e-05
3.478573e-05
3.478553e-05
3.478531e-05
3.47851e-05
3.47849e-05
3.478471e-05
3.478451e-05
3.478432e-05
3.478412e-05
3.478393e-05
3.478373e-05
3.478352e-05
3.478331e-05
3.47831e-05
3.478288e-05
3.478265e-05
3.478242e-05
3.478218e-05
3.478194e-05
3.478169e-05
3.478143e-05
3.478116e-05
3.478089e-05
3.478061e-05
3.478032e-05
3.478004e-05
3.477979e-05
3.478665e-05
3.478628e-05
3.478602e-05
3.478581e-05
3.478561e-05
3.478538e-05
3.478516e-05
3.478496e-05
3.478476e-05
3.478457e-05
3.478438e-05
3.478419e-05
3.478399e-05
3.478379e-05
3.478358e-05
3.478337e-05
3.478315e-05
3.478293e-05
3.47827e-05
3.478246e-05
3.478222e-05
3.478197e-05
3.478172e-05
3.478146e-05
3.478119e-05
3.478091e-05
3.478062e-05
3.478033e-05
3.478004e-05
3.477975e-05
3.478665e-05
3.478628e-05
3.478601e-05
3.478581e-05
3.47856e-05
3.478539e-05
3.478518e-05
3.478498e-05
3.478478e-05
3.478459e-05
3.478439e-05
3.47842e-05
3.4784e-05
3.47838e-05
3.478359e-05
3.478338e-05
3.478316e-05
3.478293e-05
3.47827e-05
3.478247e-05
3.478222e-05
3.478197e-05
3.478172e-05
3.478146e-05
3.478119e-05
3.478091e-05
3.478062e-05
3.478033e-05
3.478003e-05
3.477975e-05
3.478657e-05
3.478621e-05
3.478595e-05
3.478574e-05
3.478554e-05
3.478533e-05
3.478512e-05
3.478492e-05
3.478472e-05
3.478453e-05
3.478433e-05
3.478414e-05
3.478394e-05
3.478374e-05
3.478353e-05
3.478332e-05
3.47831e-05
3.478288e-05
3.478265e-05
3.478242e-05
3.478218e-05
3.478194e-05
3.478169e-05
3.478143e-05
3.478116e-05
3.478089e-05
3.478061e-05
3.478033e-05
3.478005e-05
3.47798e-05
3.478659e-05
3.478623e-05
3.478597e-05
3.478576e-05
3.478556e-05
3.478534e-05
3.478514e-05
3.478494e-05
3.478475e-05
3.478456e-05
3.478436e-05
3.478416e-05
3.478396e-05
3.478376e-05
3.478355e-05
3.478333e-05
3.478312e-05
3.47829e-05
3.478267e-05
3.478243e-05
3.478219e-05
3.478194e-05
3.478168e-05
3.478142e-05
3.478114e-05
3.478086e-05
3.478057e-05
3.478028e-05
3.477998e-05
3.477973e-05
3.478668e-05
3.478631e-05
3.478604e-05
3.478583e-05
3.478563e-05
3.478542e-05
3.478521e-05
3.478502e-05
3.478482e-05
3.478463e-05
3.478444e-05
3.478425e-05
3.478405e-05
3.478385e-05
3.478364e-05
3.478343e-05
3.478322e-05
3.4783e-05
3.478277e-05
3.478254e-05
3.47823e-05
3.478206e-05
3.478181e-05
3.478155e-05
3.478128e-05
3.478101e-05
3.478073e-05
3.478044e-05
3.478015e-05
3.477987e-05
3.478673e-05
3.478636e-05
3.478609e-05
3.478588e-05
3.478567e-05
3.478546e-05
3.478525e-05
3.478505e-05
3.478486e-05
3.478466e-05
3.478446e-05
3.478427e-05
3.478407e-05
3.478387e-05
3.478367e-05
3.478346e-05
3.478325e-05
3.478303e-05
3.478281e-05
3.478258e-05
3.478234e-05
3.47821e-05
3.478185e-05
3.478159e-05
3.478133e-05
3.478106e-05
3.478078e-05
3.47805e-05
3.478021e-05
3.477994e-05
3.478666e-05
3.47863e-05
3.478603e-05
3.478582e-05
3.478562e-05
3.478541e-05
3.47852e-05
3.478501e-05
3.478481e-05