/*--------------------------------*- C++ -*----------------------------------*\
| =========                 |                                                 |
| \\      /  F ield         | OpenFOAM: The Open Source CFD Toolbox           |
|  \\    /   O peration     | Version:  4.0                                   |
|   \\  /    A nd           | Web:      www.OpenFOAM.org                      |
|    \\/     M anipulation  |                                                 |
\*---------------------------------------------------------------------------*/
FoamFile
{
    version     2.0;
    format      ascii;
    class       volScalarField;
    location    "60/air";
    object      diffH2Oair;
}
// * * * * * * * * * * * * * * * * * * * * * * * * * * * * * * * * * * * * * //

dimensions      [0 2 -1 0 0 0 0];

internalField   nonuniform List<scalar> 
39776
(
3.486632e-05
3.486101e-05
3.48572e-05
3.485435e-05
3.485217e-05
3.485047e-05
3.484912e-05
3.484804e-05
3.484717e-05
3.484647e-05
3.484589e-05
3.484543e-05
3.484505e-05
3.484474e-05
3.48445e-05
3.48443e-05
3.484415e-05
3.484403e-05
3.484396e-05
3.484393e-05
3.484395e-05
3.484403e-05
3.484421e-05
3.484452e-05
3.484504e-05
3.484589e-05
3.484724e-05
3.484939e-05
3.485283e-05
3.485835e-05
3.486597e-05
3.486018e-05
3.485593e-05
3.48527e-05
3.485017e-05
3.484815e-05
3.484651e-05
3.484518e-05
3.484408e-05
3.484316e-05
3.484241e-05
3.484178e-05
3.484125e-05
3.484082e-05
3.484046e-05
3.484016e-05
3.483993e-05
3.483974e-05
3.483961e-05
3.483954e-05
3.483953e-05
3.48396e-05
3.483978e-05
3.484013e-05
3.484071e-05
3.484166e-05
3.484317e-05
3.484555e-05
3.48493e-05
3.48552e-05
3.486589e-05
3.486012e-05
3.485588e-05
3.485265e-05
3.485012e-05
3.48481e-05
3.484647e-05
3.484514e-05
3.484404e-05
3.484313e-05
3.484237e-05
3.484175e-05
3.484122e-05
3.484079e-05
3.484043e-05
3.484014e-05
3.48399e-05
3.483972e-05
3.483959e-05
3.483952e-05
3.483951e-05
3.483959e-05
3.483978e-05
3.484013e-05
3.484073e-05
3.484169e-05
3.484321e-05
3.484559e-05
3.484932e-05
3.485516e-05
3.486608e-05
3.48608e-05
3.4857e-05
3.485417e-05
3.4852e-05
3.48503e-05
3.484896e-05
3.484789e-05
3.484702e-05
3.484632e-05
3.484574e-05
3.484528e-05
3.48449e-05
3.484459e-05
3.484434e-05
3.484415e-05
3.484399e-05
3.484388e-05
3.48438e-05
3.484377e-05
3.484378e-05
3.484387e-05
3.484404e-05
3.484435e-05
3.484487e-05
3.48457e-05
3.484704e-05
3.484916e-05
3.485253e-05
3.485793e-05
3.486594e-05
3.48607e-05
3.485692e-05
3.48541e-05
3.485194e-05
3.485026e-05
3.484892e-05
3.484785e-05
3.484699e-05
3.484629e-05
3.484572e-05
3.484526e-05
3.484488e-05
3.484458e-05
3.484433e-05
3.484413e-05
3.484398e-05
3.484387e-05
3.484379e-05
3.484376e-05
3.484378e-05
3.484386e-05
3.484403e-05
3.484434e-05
3.484485e-05
3.484568e-05
3.4847e-05
3.484911e-05
3.485246e-05
3.485782e-05
3.486566e-05
3.485993e-05
3.485572e-05
3.485252e-05
3.485001e-05
3.484801e-05
3.48464e-05
3.484507e-05
3.484398e-05
3.484308e-05
3.484233e-05
3.48417e-05
3.484119e-05
3.484075e-05
3.48404e-05
3.484011e-05
3.483988e-05
3.48397e-05
3.483957e-05
3.48395e-05
3.483949e-05
3.483957e-05
3.483976e-05
3.484011e-05
3.48407e-05
3.484165e-05
3.484316e-05
3.484552e-05
3.48492e-05
3.485497e-05
3.486562e-05
3.48599e-05
3.48557e-05
3.48525e-05
3.485e-05
3.4848e-05
3.484638e-05
3.484506e-05
3.484397e-05
3.484307e-05
3.484232e-05
3.48417e-05
3.484118e-05
3.484075e-05
3.484039e-05
3.48401e-05
3.483987e-05
3.483969e-05
3.483957e-05
3.483949e-05
3.483949e-05
3.483957e-05
3.483976e-05
3.484011e-05
3.48407e-05
3.484165e-05
3.484316e-05
3.484552e-05
3.48492e-05
3.485496e-05
3.486584e-05
3.486061e-05
3.485685e-05
3.485404e-05
3.485188e-05
3.48502e-05
3.484887e-05
3.48478e-05
3.484694e-05
3.484625e-05
3.484568e-05
3.484522e-05
3.484484e-05
3.484454e-05
3.484429e-05
3.48441e-05
3.484394e-05
3.484383e-05
3.484375e-05
3.484372e-05
3.484374e-05
3.484382e-05
3.484399e-05
3.48443e-05
3.484482e-05
3.484564e-05
3.484696e-05
3.484906e-05
3.48524e-05
3.485775e-05
3.486578e-05
3.486056e-05
3.485681e-05
3.4854e-05
3.485186e-05
3.485018e-05
3.484885e-05
3.484779e-05
3.484693e-05
3.484624e-05
3.484567e-05
3.484521e-05
3.484484e-05
3.484453e-05
3.484429e-05
3.484409e-05
3.484394e-05
3.484383e-05
3.484375e-05
3.484372e-05
3.484374e-05
3.484382e-05
3.484399e-05
3.48443e-05
3.484481e-05
3.484564e-05
3.484695e-05
3.484905e-05
3.485238e-05
3.485772e-05
3.486551e-05
3.485982e-05
3.485563e-05
3.485244e-05
3.484995e-05
3.484796e-05
3.484635e-05
3.484503e-05
3.484395e-05
3.484305e-05
3.48423e-05
3.484168e-05
3.484117e-05
3.484074e-05
3.484038e-05
3.484009e-05
3.483986e-05
3.483969e-05
3.483956e-05
3.483949e-05
3.483948e-05
3.483956e-05
3.483975e-05
3.48401e-05
3.484069e-05
3.484164e-05
3.484314e-05
3.484549e-05
3.484916e-05
3.48549e-05
3.48655e-05
3.48598e-05
3.485562e-05
3.485244e-05
3.484994e-05
3.484795e-05
3.484634e-05
3.484503e-05
3.484394e-05
3.484305e-05
3.48423e-05
3.484168e-05
3.484116e-05
3.484073e-05
3.484038e-05
3.484009e-05
3.483986e-05
3.483968e-05
3.483956e-05
3.483949e-05
3.483948e-05
3.483956e-05
3.483975e-05
3.48401e-05
3.484069e-05
3.484164e-05
3.484314e-05
3.484549e-05
3.484915e-05
3.485489e-05
3.486574e-05
3.486052e-05
3.485677e-05
3.485398e-05
3.485183e-05
3.485016e-05
3.484883e-05
3.484777e-05
3.484691e-05
3.484622e-05
3.484565e-05
3.484519e-05
3.484482e-05
3.484452e-05
3.484427e-05
3.484408e-05
3.484392e-05
3.484381e-05
3.484374e-05
3.48437e-05
3.484372e-05
3.48438e-05
3.484398e-05
3.484428e-05
3.484479e-05
3.484562e-05
3.484693e-05
3.484903e-05
3.485236e-05
3.485768e-05
3.486572e-05
3.486051e-05
3.485676e-05
3.485397e-05
3.485182e-05
3.485015e-05
3.484882e-05
3.484776e-05
3.484691e-05
3.484621e-05
3.484565e-05
3.484519e-05
3.484482e-05
3.484452e-05
3.484427e-05
3.484407e-05
3.484392e-05
3.484381e-05
3.484373e-05
3.48437e-05
3.484372e-05
3.48438e-05
3.484398e-05
3.484428e-05
3.484479e-05
3.484562e-05
3.484693e-05
3.484902e-05
3.485235e-05
3.485767e-05
3.486547e-05
3.485978e-05
3.48556e-05
3.485242e-05
3.484993e-05
3.484794e-05
3.484633e-05
3.484502e-05
3.484394e-05
3.484304e-05
3.484229e-05
3.484167e-05
3.484116e-05
3.484073e-05
3.484038e-05
3.484009e-05
3.483986e-05
3.483968e-05
3.483956e-05
3.483949e-05
3.483948e-05
3.483956e-05
3.483975e-05
3.48401e-05
3.484069e-05
3.484164e-05
3.484313e-05
3.484548e-05
3.484915e-05
3.485488e-05
3.486547e-05
3.485978e-05
3.48556e-05
3.485242e-05
3.484993e-05
3.484794e-05
3.484633e-05
3.484502e-05
3.484394e-05
3.484304e-05
3.484229e-05
3.484167e-05
3.484116e-05
3.484073e-05
3.484038e-05
3.484009e-05
3.483986e-05
3.483968e-05
3.483956e-05
3.483949e-05
3.483948e-05
3.483956e-05
3.483975e-05
3.48401e-05
3.484069e-05
3.484164e-05
3.484313e-05
3.484548e-05
3.484915e-05
3.485488e-05
3.486572e-05
3.486051e-05
3.485676e-05
3.485397e-05
3.485182e-05
3.485015e-05
3.484882e-05
3.484776e-05
3.484691e-05
3.484621e-05
3.484565e-05
3.484519e-05
3.484482e-05
3.484452e-05
3.484427e-05
3.484407e-05
3.484392e-05
3.484381e-05
3.484373e-05
3.48437e-05
3.484372e-05
3.48438e-05
3.484398e-05
3.484428e-05
3.484479e-05
3.484562e-05
3.484693e-05
3.484902e-05
3.485235e-05
3.485767e-05
3.486574e-05
3.486052e-05
3.485677e-05
3.485398e-05
3.485183e-05
3.485016e-05
3.484883e-05
3.484777e-05
3.484691e-05
3.484622e-05
3.484565e-05
3.484519e-05
3.484482e-05
3.484452e-05
3.484427e-05
3.484408e-05
3.484392e-05
3.484381e-05
3.484374e-05
3.48437e-05
3.484372e-05
3.48438e-05
3.484398e-05
3.484428e-05
3.484479e-05
3.484562e-05
3.484693e-05
3.484903e-05
3.485236e-05
3.485768e-05
3.48655e-05
3.48598e-05
3.485562e-05
3.485244e-05
3.484994e-05
3.484795e-05
3.484634e-05
3.484503e-05
3.484394e-05
3.484305e-05
3.48423e-05
3.484168e-05
3.484116e-05
3.484073e-05
3.484038e-05
3.484009e-05
3.483986e-05
3.483968e-05
3.483956e-05
3.483949e-05
3.483948e-05
3.483956e-05
3.483975e-05
3.48401e-05
3.484069e-05
3.484164e-05
3.484314e-05
3.484549e-05
3.484916e-05
3.485489e-05
3.486551e-05
3.485982e-05
3.485563e-05
3.485244e-05
3.484995e-05
3.484796e-05
3.484635e-05
3.484503e-05
3.484395e-05
3.484305e-05
3.48423e-05
3.484168e-05
3.484117e-05
3.484074e-05
3.484038e-05
3.484009e-05
3.483986e-05
3.483969e-05
3.483956e-05
3.483949e-05
3.483948e-05
3.483956e-05
3.483975e-05
3.48401e-05
3.484069e-05
3.484164e-05
3.484314e-05
3.484549e-05
3.484916e-05
3.48549e-05
3.486578e-05
3.486056e-05
3.485681e-05
3.4854e-05
3.485186e-05
3.485018e-05
3.484885e-05
3.484779e-05
3.484693e-05
3.484624e-05
3.484567e-05
3.484521e-05
3.484484e-05
3.484453e-05
3.484429e-05
3.484409e-05
3.484394e-05
3.484383e-05
3.484375e-05
3.484372e-05
3.484374e-05
3.484382e-05
3.484399e-05
3.48443e-05
3.484481e-05
3.484564e-05
3.484695e-05
3.484905e-05
3.485238e-05
3.485772e-05
3.486584e-05
3.486061e-05
3.485685e-05
3.485404e-05
3.485188e-05
3.48502e-05
3.484887e-05
3.48478e-05
3.484694e-05
3.484625e-05
3.484568e-05
3.484522e-05
3.484484e-05
3.484454e-05
3.484429e-05
3.48441e-05
3.484394e-05
3.484383e-05
3.484375e-05
3.484372e-05
3.484374e-05
3.484382e-05
3.4844e-05
3.48443e-05
3.484482e-05
3.484564e-05
3.484696e-05
3.484906e-05
3.485241e-05
3.485775e-05
3.486562e-05
3.48599e-05
3.48557e-05
3.48525e-05
3.485e-05
3.4848e-05
3.484638e-05
3.484506e-05
3.484397e-05
3.484307e-05
3.484232e-05
3.48417e-05
3.484118e-05
3.484075e-05
3.484039e-05
3.48401e-05
3.483987e-05
3.483969e-05
3.483957e-05
3.48395e-05
3.483949e-05
3.483957e-05
3.483976e-05
3.484011e-05
3.48407e-05
3.484165e-05
3.484316e-05
3.484552e-05
3.48492e-05
3.485496e-05
3.486566e-05
3.485993e-05
3.485572e-05
3.485252e-05
3.485001e-05
3.484801e-05
3.48464e-05
3.484507e-05
3.484398e-05
3.484308e-05
3.484233e-05
3.48417e-05
3.484119e-05
3.484075e-05
3.48404e-05
3.484011e-05
3.483988e-05
3.48397e-05
3.483957e-05
3.48395e-05
3.483949e-05
3.483957e-05
3.483976e-05
3.484011e-05
3.48407e-05
3.484165e-05
3.484316e-05
3.484552e-05
3.48492e-05
3.485497e-05
3.486594e-05
3.486069e-05
3.485692e-05
3.48541e-05
3.485194e-05
3.485026e-05
3.484892e-05
3.484785e-05
3.484699e-05
3.484629e-05
3.484572e-05
3.484526e-05
3.484488e-05
3.484458e-05
3.484433e-05
3.484413e-05
3.484398e-05
3.484387e-05
3.484379e-05
3.484376e-05
3.484378e-05
3.484386e-05
3.484403e-05
3.484434e-05
3.484485e-05
3.484568e-05
3.4847e-05
3.484911e-05
3.485246e-05
3.485782e-05
3.486608e-05
3.48608e-05
3.4857e-05
3.485417e-05
3.4852e-05
3.48503e-05
3.484896e-05
3.484789e-05
3.484702e-05
3.484632e-05
3.484574e-05
3.484528e-05
3.48449e-05
3.484459e-05
3.484434e-05
3.484415e-05
3.484399e-05
3.484388e-05
3.48438e-05
3.484377e-05
3.484378e-05
3.484387e-05
3.484404e-05
3.484435e-05
3.484487e-05
3.48457e-05
3.484704e-05
3.484916e-05
3.485253e-05
3.485792e-05
3.486589e-05
3.486011e-05
3.485588e-05
3.485265e-05
3.485012e-05
3.48481e-05
3.484647e-05
3.484514e-05
3.484404e-05
3.484313e-05
3.484237e-05
3.484174e-05
3.484122e-05
3.484079e-05
3.484043e-05
3.484014e-05
3.48399e-05
3.483972e-05
3.483959e-05
3.483952e-05
3.483951e-05
3.483959e-05
3.483978e-05
3.484013e-05
3.484073e-05
3.484169e-05
3.48432e-05
3.484559e-05
3.484931e-05
3.485515e-05
3.486596e-05
3.486018e-05
3.485593e-05
3.48527e-05
3.485016e-05
3.484815e-05
3.484651e-05
3.484518e-05
3.484408e-05
3.484316e-05
3.484241e-05
3.484178e-05
3.484125e-05
3.484082e-05
3.484046e-05
3.484016e-05
3.483993e-05
3.483974e-05
3.483961e-05
3.483954e-05
3.483953e-05
3.48396e-05
3.483978e-05
3.484013e-05
3.484071e-05
3.484166e-05
3.484317e-05
3.484555e-05
3.484929e-05
3.485519e-05
3.486632e-05
3.486101e-05
3.48572e-05
3.485435e-05
3.485217e-05
3.485046e-05
3.484912e-05
3.484804e-05
3.484717e-05
3.484646e-05
3.484589e-05
3.484543e-05
3.484505e-05
3.484474e-05
3.48445e-05
3.48443e-05
3.484415e-05
3.484403e-05
3.484396e-05
3.484393e-05
3.484394e-05
3.484403e-05
3.484421e-05
3.484452e-05
3.484504e-05
3.484589e-05
3.484724e-05
3.484939e-05
3.485283e-05
3.485834e-05
3.486939e-05
3.486681e-05
3.486432e-05
3.486201e-05
3.485992e-05
3.485806e-05
3.485643e-05
3.485503e-05
3.485384e-05
3.485283e-05
3.485198e-05
3.485129e-05
3.485072e-05
3.485026e-05
3.484991e-05
3.484966e-05
3.48495e-05
3.484943e-05
3.484947e-05
3.484961e-05
3.484989e-05
3.485032e-05
3.485093e-05
3.485178e-05
3.48529e-05
3.485437e-05
3.485625e-05
3.48586e-05
3.486148e-05
3.486486e-05
3.486891e-05
3.486554e-05
3.486232e-05
3.485933e-05
3.485663e-05
3.485422e-05
3.485211e-05
3.485028e-05
3.48487e-05
3.484734e-05
3.484619e-05
3.484522e-05
3.48444e-05
3.484374e-05
3.48432e-05
3.484279e-05
3.48425e-05
3.484233e-05
3.484229e-05
3.48424e-05
3.484268e-05
3.484317e-05
3.48439e-05
3.484494e-05
3.484636e-05
3.484825e-05
3.485069e-05
3.485379e-05
3.48576e-05
3.486213e-05
3.486883e-05
3.486546e-05
3.486224e-05
3.485925e-05
3.485655e-05
3.485414e-05
3.485203e-05
3.48502e-05
3.484862e-05
3.484727e-05
3.484612e-05
3.484515e-05
3.484434e-05
3.484367e-05
3.484314e-05
3.484274e-05
3.484245e-05
3.484229e-05
3.484227e-05
3.484239e-05
3.484268e-05
3.484318e-05
3.484393e-05
3.484499e-05
3.484643e-05
3.484833e-05
3.485078e-05
3.485385e-05
3.485762e-05
3.486207e-05
3.486915e-05
3.486656e-05
3.486407e-05
3.486176e-05
3.485966e-05
3.485781e-05
3.485618e-05
3.485478e-05
3.485359e-05
3.485258e-05
3.485174e-05
3.485104e-05
3.485047e-05
3.485001e-05
3.484966e-05
3.48494e-05
3.484924e-05
3.484917e-05
3.484921e-05
3.484935e-05
3.484962e-05
3.485005e-05
3.485066e-05
3.48515e-05
3.485262e-05
3.485408e-05
3.485594e-05
3.485826e-05
3.486109e-05
3.486441e-05
3.486901e-05
3.486644e-05
3.486396e-05
3.486166e-05
3.485958e-05
3.485773e-05
3.485612e-05
3.485473e-05
3.485354e-05
3.485254e-05
3.48517e-05
3.4851e-05
3.485043e-05
3.484998e-05
3.484963e-05
3.484938e-05
3.484922e-05
3.484915e-05
3.484918e-05
3.484932e-05
3.484959e-05
3.485001e-05
3.485062e-05
3.485145e-05
3.485256e-05
3.4854e-05
3.485584e-05
3.485815e-05
3.486096e-05
3.486426e-05
3.486859e-05
3.486524e-05
3.486204e-05
3.485908e-05
3.485639e-05
3.485401e-05
3.485191e-05
3.485009e-05
3.484852e-05
3.484718e-05
3.484604e-05
3.484507e-05
3.484427e-05
3.484361e-05
3.484308e-05
3.484268e-05
3.48424e-05
3.484223e-05
3.484221e-05
3.484232e-05
3.484261e-05
3.48431e-05
3.484384e-05
3.484488e-05
3.48463e-05
3.484818e-05
3.485059e-05
3.485363e-05
3.485736e-05
3.486178e-05
3.486855e-05
3.486521e-05
3.486201e-05
3.485905e-05
3.485637e-05
3.485398e-05
3.485189e-05
3.485007e-05
3.48485e-05
3.484716e-05
3.484602e-05
3.484506e-05
3.484425e-05
3.48436e-05
3.484307e-05
3.484267e-05
3.484238e-05
3.484222e-05
3.48422e-05
3.484232e-05
3.484261e-05
3.48431e-05
3.484384e-05
3.484489e-05
3.484631e-05
3.484818e-05
3.485059e-05
3.485363e-05
3.485736e-05
3.486176e-05
3.48689e-05
3.486633e-05
3.486386e-05
3.486157e-05
3.485949e-05
3.485764e-05
3.485603e-05
3.485465e-05
3.485346e-05
3.485246e-05
3.485162e-05
3.485093e-05
3.485036e-05
3.484991e-05
3.484956e-05
3.484931e-05
3.484915e-05
3.484908e-05
3.484911e-05
3.484926e-05
3.484953e-05
3.484995e-05
3.485056e-05
3.485139e-05
3.485249e-05
3.485393e-05
3.485577e-05
3.485807e-05
3.486087e-05
3.486417e-05
3.486883e-05
3.486627e-05
3.486381e-05
3.486152e-05
3.485945e-05
3.485761e-05
3.485601e-05
3.485462e-05
3.485344e-05
3.485244e-05
3.485161e-05
3.485092e-05
3.485035e-05
3.48499e-05
3.484955e-05
3.48493e-05
3.484914e-05
3.484908e-05
3.484911e-05
3.484925e-05
3.484952e-05
3.484994e-05
3.485055e-05
3.485138e-05
3.485248e-05
3.485392e-05
3.485575e-05
3.485804e-05
3.486084e-05
3.486413e-05
3.486844e-05
3.486511e-05
3.486192e-05
3.485897e-05
3.48563e-05
3.485392e-05
3.485183e-05
3.485002e-05
3.484846e-05
3.484713e-05
3.484599e-05
3.484503e-05
3.484423e-05
3.484358e-05
3.484305e-05
3.484265e-05
3.484237e-05
3.484221e-05
3.484218e-05
3.48423e-05
3.484259e-05
3.484308e-05
3.484382e-05
3.484486e-05
3.484628e-05
3.484814e-05
3.485055e-05
3.485358e-05
3.485729e-05
3.486168e-05
3.486842e-05
3.486509e-05
3.486191e-05
3.485896e-05
3.485628e-05
3.485391e-05
3.485182e-05
3.485001e-05
3.484845e-05
3.484712e-05
3.484598e-05
3.484502e-05
3.484423e-05
3.484357e-05
3.484305e-05
3.484264e-05
3.484236e-05
3.484221e-05
3.484218e-05
3.48423e-05
3.484259e-05
3.484308e-05
3.484382e-05
3.484486e-05
3.484627e-05
3.484814e-05
3.485055e-05
3.485358e-05
3.485728e-05
3.486167e-05
3.486879e-05
3.486623e-05
3.486377e-05
3.486148e-05
3.485941e-05
3.485757e-05
3.485597e-05
3.485459e-05
3.485341e-05
3.485241e-05
3.485158e-05
3.485089e-05
3.485032e-05
3.484987e-05
3.484952e-05
3.484927e-05
3.484911e-05
3.484905e-05
3.484908e-05
3.484922e-05
3.484949e-05
3.484991e-05
3.485052e-05
3.485135e-05
3.485245e-05
3.485388e-05
3.485572e-05
3.485801e-05
3.48608e-05
3.486408e-05
3.486877e-05
3.486621e-05
3.486375e-05
3.486147e-05
3.48594e-05
3.485756e-05
3.485596e-05
3.485458e-05
3.48534e-05
3.485241e-05
3.485157e-05
3.485088e-05
3.485032e-05
3.484987e-05
3.484952e-05
3.484927e-05
3.484911e-05
3.484905e-05
3.484908e-05
3.484922e-05
3.484949e-05
3.484991e-05
3.485051e-05
3.485134e-05
3.485245e-05
3.485388e-05
3.485571e-05
3.4858e-05
3.486079e-05
3.486407e-05
3.486838e-05
3.486506e-05
3.486188e-05
3.485893e-05
3.485626e-05
3.485389e-05
3.485181e-05
3.485e-05
3.484844e-05
3.484711e-05
3.484597e-05
3.484502e-05
3.484422e-05
3.484356e-05
3.484304e-05
3.484264e-05
3.484236e-05
3.48422e-05
3.484217e-05
3.484229e-05
3.484258e-05
3.484307e-05
3.484381e-05
3.484485e-05
3.484626e-05
3.484813e-05
3.485053e-05
3.485356e-05
3.485727e-05
3.486165e-05
3.486838e-05
3.486506e-05
3.486188e-05
3.485893e-05
3.485626e-05
3.485389e-05
3.485181e-05
3.485e-05
3.484844e-05
3.484711e-05
3.484597e-05
3.484502e-05
3.484422e-05
3.484356e-05
3.484304e-05
3.484264e-05
3.484236e-05
3.48422e-05
3.484217e-05
3.484229e-05
3.484258e-05
3.484307e-05
3.484381e-05
3.484485e-05
3.484626e-05
3.484813e-05
3.485053e-05
3.485356e-05
3.485727e-05
3.486165e-05
3.486877e-05
3.486621e-05
3.486375e-05
3.486147e-05
3.48594e-05
3.485756e-05
3.485596e-05
3.485458e-05
3.48534e-05
3.485241e-05
3.485157e-05
3.485088e-05
3.485032e-05
3.484987e-05
3.484952e-05
3.484927e-05
3.484911e-05
3.484905e-05
3.484908e-05
3.484922e-05
3.484949e-05
3.484991e-05
3.485051e-05
3.485134e-05
3.485245e-05
3.485388e-05
3.485571e-05
3.4858e-05
3.486079e-05
3.486407e-05
3.486879e-05
3.486623e-05
3.486377e-05
3.486148e-05
3.485941e-05
3.485757e-05
3.485597e-05
3.485459e-05
3.485341e-05
3.485241e-05
3.485158e-05
3.485089e-05
3.485032e-05
3.484987e-05
3.484952e-05
3.484927e-05
3.484911e-05
3.484905e-05
3.484908e-05
3.484922e-05
3.484949e-05
3.484991e-05
3.485052e-05
3.485135e-05
3.485245e-05
3.485388e-05
3.485572e-05
3.485801e-05
3.48608e-05
3.486408e-05
3.486842e-05
3.486509e-05
3.486191e-05
3.485896e-05
3.485628e-05
3.485391e-05
3.485182e-05
3.485001e-05
3.484845e-05
3.484712e-05
3.484598e-05
3.484502e-05
3.484423e-05
3.484357e-05
3.484305e-05
3.484264e-05
3.484236e-05
3.484221e-05
3.484218e-05
3.48423e-05
3.484259e-05
3.484308e-05
3.484382e-05
3.484486e-05
3.484627e-05
3.484814e-05
3.485055e-05
3.485357e-05
3.485728e-05
3.486167e-05
3.486844e-05
3.486511e-05
3.486192e-05
3.485897e-05
3.48563e-05
3.485392e-05
3.485183e-05
3.485002e-05
3.484846e-05
3.484713e-05
3.484599e-05
3.484503e-05
3.484423e-05
3.484358e-05
3.484305e-05
3.484265e-05
3.484237e-05
3.484221e-05
3.484218e-05
3.48423e-05
3.484259e-05
3.484308e-05
3.484382e-05
3.484486e-05
3.484628e-05
3.484814e-05
3.485055e-05
3.485358e-05
3.485729e-05
3.486168e-05
3.486883e-05
3.486627e-05
3.486381e-05
3.486152e-05
3.485945e-05
3.485761e-05
3.485601e-05
3.485462e-05
3.485344e-05
3.485244e-05
3.485161e-05
3.485092e-05
3.485035e-05
3.48499e-05
3.484955e-05
3.48493e-05
3.484914e-05
3.484908e-05
3.484911e-05
3.484925e-05
3.484952e-05
3.484994e-05
3.485055e-05
3.485138e-05
3.485248e-05
3.485392e-05
3.485575e-05
3.485804e-05
3.486084e-05
3.486412e-05
3.48689e-05
3.486633e-05
3.486386e-05
3.486156e-05
3.485949e-05
3.485764e-05
3.485603e-05
3.485465e-05
3.485346e-05
3.485246e-05
3.485162e-05
3.485093e-05
3.485036e-05
3.484991e-05
3.484956e-05
3.484931e-05
3.484915e-05
3.484908e-05
3.484911e-05
3.484926e-05
3.484953e-05
3.484995e-05
3.485056e-05
3.485139e-05
3.485249e-05
3.485393e-05
3.485577e-05
3.485807e-05
3.486087e-05
3.486417e-05
3.486855e-05
3.486521e-05
3.486201e-05
3.485905e-05
3.485637e-05
3.485398e-05
3.485189e-05
3.485007e-05
3.48485e-05
3.484716e-05
3.484602e-05
3.484506e-05
3.484425e-05
3.48436e-05
3.484307e-05
3.484267e-05
3.484238e-05
3.484222e-05
3.48422e-05
3.484232e-05
3.48426e-05
3.48431e-05
3.484384e-05
3.484489e-05
3.484631e-05
3.484818e-05
3.485059e-05
3.485363e-05
3.485736e-05
3.486176e-05
3.486859e-05
3.486524e-05
3.486204e-05
3.485908e-05
3.485639e-05
3.485401e-05
3.485191e-05
3.485009e-05
3.484852e-05
3.484718e-05
3.484604e-05
3.484507e-05
3.484427e-05
3.484361e-05
3.484308e-05
3.484268e-05
3.48424e-05
3.484223e-05
3.484221e-05
3.484232e-05
3.484261e-05
3.48431e-05
3.484384e-05
3.484488e-05
3.48463e-05
3.484818e-05
3.485059e-05
3.485363e-05
3.485736e-05
3.486178e-05
3.486901e-05
3.486643e-05
3.486396e-05
3.486166e-05
3.485958e-05
3.485773e-05
3.485612e-05
3.485473e-05
3.485354e-05
3.485254e-05
3.48517e-05
3.4851e-05
3.485043e-05
3.484998e-05
3.484963e-05
3.484938e-05
3.484921e-05
3.484915e-05
3.484918e-05
3.484932e-05
3.484959e-05
3.485001e-05
3.485062e-05
3.485145e-05
3.485256e-05
3.4854e-05
3.485584e-05
3.485815e-05
3.486096e-05
3.486426e-05
3.486915e-05
3.486656e-05
3.486407e-05
3.486176e-05
3.485966e-05
3.485781e-05
3.485618e-05
3.485478e-05
3.485359e-05
3.485258e-05
3.485174e-05
3.485104e-05
3.485047e-05
3.485001e-05
3.484966e-05
3.48494e-05
3.484924e-05
3.484917e-05
3.484921e-05
3.484935e-05
3.484962e-05
3.485005e-05
3.485066e-05
3.48515e-05
3.485262e-05
3.485408e-05
3.485594e-05
3.485826e-05
3.486108e-05
3.486441e-05
3.486883e-05
3.486546e-05
3.486224e-05
3.485925e-05
3.485655e-05
3.485414e-05
3.485203e-05
3.48502e-05
3.484862e-05
3.484727e-05
3.484612e-05
3.484515e-05
3.484434e-05
3.484367e-05
3.484314e-05
3.484274e-05
3.484245e-05
3.484229e-05
3.484227e-05
3.484239e-05
3.484268e-05
3.484318e-05
3.484393e-05
3.484499e-05
3.484643e-05
3.484833e-05
3.485077e-05
3.485385e-05
3.485761e-05
3.486206e-05
3.486891e-05
3.486554e-05
3.486232e-05
3.485933e-05
3.485663e-05
3.485422e-05
3.485211e-05
3.485028e-05
3.48487e-05
3.484734e-05
3.484619e-05
3.484522e-05
3.48444e-05
3.484374e-05
3.48432e-05
3.484279e-05
3.48425e-05
3.484233e-05
3.484229e-05
3.48424e-05
3.484268e-05
3.484316e-05
3.48439e-05
3.484494e-05
3.484636e-05
3.484824e-05
3.485069e-05
3.485378e-05
3.485759e-05
3.486213e-05
3.486939e-05
3.486681e-05
3.486432e-05
3.486201e-05
3.485991e-05
3.485806e-05
3.485643e-05
3.485503e-05
3.485384e-05
3.485283e-05
3.485198e-05
3.485129e-05
3.485072e-05
3.485026e-05
3.484991e-05
3.484966e-05
3.48495e-05
3.484943e-05
3.484947e-05
3.484961e-05
3.484989e-05
3.485031e-05
3.485093e-05
3.485177e-05
3.48529e-05
3.485437e-05
3.485625e-05
3.48586e-05
3.486148e-05
3.486486e-05
3.487034e-05
3.486869e-05
3.486704e-05
3.486541e-05
3.486384e-05
3.486235e-05
3.486095e-05
3.485968e-05
3.485854e-05
3.485753e-05
3.485665e-05
3.48559e-05
3.485529e-05
3.485479e-05
3.485442e-05
3.485417e-05
3.485404e-05
3.485403e-05
3.485416e-05
3.485443e-05
3.485485e-05
3.485545e-05
3.485623e-05
3.485722e-05
3.485844e-05
3.485989e-05
3.48616e-05
3.486355e-05
3.486573e-05
3.486812e-05
3.486982e-05
3.48673e-05
3.48648e-05
3.486237e-05
3.486005e-05
3.485786e-05
3.485583e-05
3.485399e-05
3.485233e-05
3.485086e-05
3.484957e-05
3.484846e-05
3.484753e-05
3.484676e-05
3.484615e-05
3.48457e-05
3.484542e-05
3.48453e-05
3.484537e-05
3.484565e-05
3.484615e-05
3.48469e-05
3.484795e-05
3.484933e-05
3.485107e-05
3.485322e-05
3.485579e-05
3.485881e-05
3.486225e-05
3.486607e-05
3.486975e-05
3.486722e-05
3.486472e-05
3.486229e-05
3.485996e-05
3.485776e-05
3.485573e-05
3.485389e-05
3.485223e-05
3.485076e-05
3.484947e-05
3.484837e-05
3.484744e-05
3.484667e-05
3.484607e-05
3.484563e-05
3.484536e-05
3.484526e-05
3.484535e-05
3.484564e-05
3.484616e-05
3.484694e-05
3.484801e-05
3.484941e-05
3.485117e-05
3.485332e-05
3.485589e-05
3.485888e-05
3.486227e-05
3.486602e-05
3.487012e-05
3.486845e-05
3.486679e-05
3.486516e-05
3.486358e-05
3.486208e-05
3.486068e-05
3.485941e-05
3.485826e-05
3.485724e-05
3.485636e-05
3.485562e-05
3.485499e-05
3.48545e-05
3.485412e-05
3.485387e-05
3.485373e-05
3.485373e-05
3.485385e-05
3.485412e-05
3.485454e-05
3.485514e-05
3.485592e-05
3.485691e-05
3.485812e-05
3.485957e-05
3.486126e-05
3.48632e-05
3.486537e-05
3.486774e-05
3.486999e-05
3.486834e-05
3.486668e-05
3.486506e-05
3.486348e-05
3.486199e-05
3.48606e-05
3.485933e-05
3.485819e-05
3.485718e-05
3.48563e-05
3.485556e-05
3.485494e-05
3.485445e-05
3.485407e-05
3.485382e-05
3.485369e-05
3.485368e-05
3.48538e-05
3.485406e-05
3.485448e-05
3.485507e-05
3.485584e-05
3.485682e-05
3.485801e-05
3.485945e-05
3.486113e-05
3.486306e-05
3.486521e-05
3.486757e-05
3.486952e-05
3.486701e-05
3.486452e-05
3.48621e-05
3.485979e-05
3.485761e-05
3.485559e-05
3.485375e-05
3.485211e-05
3.485065e-05
3.484937e-05
3.484827e-05
3.484734e-05
3.484658e-05
3.484598e-05
3.484554e-05
3.484527e-05
3.484516e-05
3.484524e-05
3.484552e-05
3.484603e-05
3.484679e-05
3.484784e-05
3.484921e-05
3.485095e-05
3.485307e-05
3.485562e-05
3.485858e-05
3.486196e-05
3.486569e-05
3.486949e-05
3.486697e-05
3.486449e-05
3.486207e-05
3.485975e-05
3.485757e-05
3.485556e-05
3.485372e-05
3.485208e-05
3.485062e-05
3.484934e-05
3.484824e-05
3.484732e-05
3.484656e-05
3.484596e-05
3.484552e-05
3.484525e-05
3.484515e-05
3.484523e-05
3.484551e-05
3.484602e-05
3.484679e-05
3.484784e-05
3.484922e-05
3.485096e-05
3.485309e-05
3.485563e-05
3.485859e-05
3.486195e-05
3.486568e-05
3.486989e-05
3.486823e-05
3.486658e-05
3.486495e-05
3.486338e-05
3.486189e-05
3.48605e-05
3.485923e-05
3.485809e-05
3.485708e-05
3.485621e-05
3.485547e-05
3.485485e-05
3.485436e-05
3.485398e-05
3.485373e-05
3.48536e-05
3.485359e-05
3.485371e-05
3.485398e-05
3.48544e-05
3.485498e-05
3.485576e-05
3.485673e-05
3.485793e-05
3.485936e-05
3.486104e-05
3.486297e-05
3.486512e-05
3.486747e-05
3.486982e-05
3.486817e-05
3.486652e-05
3.48649e-05
3.486333e-05
3.486185e-05
3.486046e-05
3.48592e-05
3.485806e-05
3.485706e-05
3.485619e-05
3.485545e-05
3.485483e-05
3.485434e-05
3.485397e-05
3.485372e-05
3.485359e-05
3.485358e-05
3.48537e-05
3.485397e-05
3.485438e-05
3.485497e-05
3.485574e-05
3.485671e-05
3.485791e-05
3.485934e-05
3.486101e-05
3.486293e-05
3.486508e-05
3.486742e-05
3.486937e-05
3.486687e-05
3.486439e-05
3.486198e-05
3.485967e-05
3.48575e-05
3.485549e-05
3.485367e-05
3.485202e-05
3.485057e-05
3.48493e-05
3.484821e-05
3.484729e-05
3.484653e-05
3.484593e-05
3.48455e-05
3.484522e-05
3.484512e-05
3.48452e-05
3.484549e-05
3.4846e-05
3.484676e-05
3.484781e-05
3.484918e-05
3.485091e-05
3.485303e-05
3.485556e-05
3.485852e-05
3.486187e-05
3.486559e-05
3.486936e-05
3.486685e-05
3.486438e-05
3.486197e-05
3.485966e-05
3.485749e-05
3.485548e-05
3.485365e-05
3.485201e-05
3.485056e-05
3.484929e-05
3.48482e-05
3.484728e-05
3.484652e-05
3.484592e-05
3.484549e-05
3.484522e-05
3.484511e-05
3.48452e-05
3.484548e-05
3.484599e-05
3.484675e-05
3.48478e-05
3.484918e-05
3.485091e-05
3.485303e-05
3.485556e-05
3.485851e-05
3.486186e-05
3.486557e-05
3.486977e-05
3.486812e-05
3.486648e-05
3.486486e-05
3.486329e-05
3.48618e-05
3.486042e-05
3.485916e-05
3.485802e-05
3.485702e-05
3.485615e-05
3.485541e-05
3.485479e-05
3.48543e-05
3.485393e-05
3.485368e-05
3.485355e-05
3.485354e-05
3.485367e-05
3.485393e-05
3.485435e-05
3.485493e-05
3.48557e-05
3.485668e-05
3.485787e-05
3.48593e-05
3.486097e-05
3.486289e-05
3.486503e-05
3.486738e-05
3.486975e-05
3.48681e-05
3.486646e-05
3.486484e-05
3.486328e-05
3.486179e-05
3.486041e-05
3.485915e-05
3.485801e-05
3.485701e-05
3.485614e-05
3.48554e-05
3.485479e-05
3.48543e-05
3.485393e-05
3.485368e-05
3.485355e-05
3.485354e-05
3.485366e-05
3.485393e-05
3.485434e-05
3.485493e-05
3.48557e-05
3.485667e-05
3.485786e-05
3.485929e-05
3.486096e-05
3.486288e-05
3.486502e-05
3.486737e-05
3.486932e-05
3.486682e-05
3.486435e-05
3.486194e-05
3.485963e-05
3.485747e-05
3.485546e-05
3.485364e-05
3.4852e-05
3.485055e-05
3.484928e-05
3.484819e-05
3.484727e-05
3.484651e-05
3.484592e-05
3.484548e-05
3.484521e-05
3.484511e-05
3.484519e-05
3.484547e-05
3.484598e-05
3.484674e-05
3.484779e-05
3.484916e-05
3.485089e-05
3.485301e-05
3.485554e-05
3.485849e-05
3.486184e-05
3.486555e-05
3.486932e-05
3.486682e-05
3.486435e-05
3.486194e-05
3.485963e-05
3.485747e-05
3.485546e-05
3.485364e-05
3.4852e-05
3.485055e-05
3.484928e-05
3.484819e-05
3.484727e-05
3.484651e-05
3.484592e-05
3.484548e-05
3.484521e-05
3.484511e-05
3.484519e-05
3.484547e-05
3.484598e-05
3.484674e-05
3.484779e-05
3.484916e-05
3.485089e-05
3.485301e-05
3.485554e-05
3.485849e-05
3.486184e-05
3.486555e-05
3.486975e-05
3.48681e-05
3.486646e-05
3.486484e-05
3.486328e-05
3.486179e-05
3.486041e-05
3.485915e-05
3.485801e-05
3.485701e-05
3.485614e-05
3.48554e-05
3.485479e-05
3.48543e-05
3.485393e-05
3.485368e-05
3.485355e-05
3.485354e-05
3.485366e-05
3.485393e-05
3.485434e-05
3.485493e-05
3.48557e-05
3.485667e-05
3.485786e-05
3.485929e-05
3.486096e-05
3.486288e-05
3.486502e-05
3.486737e-05
3.486977e-05
3.486812e-05
3.486648e-05
3.486486e-05
3.486329e-05
3.48618e-05
3.486042e-05
3.485916e-05
3.485802e-05
3.485702e-05
3.485615e-05
3.485541e-05
3.485479e-05
3.48543e-05
3.485393e-05
3.485368e-05
3.485355e-05
3.485354e-05
3.485367e-05
3.485393e-05
3.485435e-05
3.485493e-05
3.48557e-05
3.485667e-05
3.485787e-05
3.48593e-05
3.486097e-05
3.486289e-05
3.486503e-05
3.486738e-05
3.486936e-05
3.486685e-05
3.486438e-05
3.486197e-05
3.485966e-05
3.485749e-05
3.485548e-05
3.485365e-05
3.485201e-05
3.485056e-05
3.484929e-05
3.48482e-05
3.484728e-05
3.484652e-05
3.484592e-05
3.484549e-05
3.484522e-05
3.484511e-05
3.48452e-05
3.484548e-05
3.484599e-05
3.484675e-05
3.48478e-05
3.484917e-05
3.485091e-05
3.485303e-05
3.485556e-05
3.485851e-05
3.486186e-05
3.486557e-05
3.486937e-05
3.486687e-05
3.486439e-05
3.486198e-05
3.485967e-05
3.48575e-05
3.485549e-05
3.485367e-05
3.485202e-05
3.485057e-05
3.48493e-05
3.484821e-05
3.484729e-05
3.484653e-05
3.484593e-05
3.48455e-05
3.484522e-05
3.484512e-05
3.48452e-05
3.484549e-05
3.4846e-05
3.484676e-05
3.484781e-05
3.484918e-05
3.485091e-05
3.485303e-05
3.485556e-05
3.485852e-05
3.486187e-05
3.486559e-05
3.486982e-05
3.486817e-05
3.486652e-05
3.48649e-05
3.486333e-05
3.486185e-05
3.486046e-05
3.48592e-05
3.485806e-05
3.485706e-05
3.485619e-05