/*--------------------------------*- C++ -*----------------------------------*\
| =========                 |                                                 |
| \\      /  F ield         | OpenFOAM: The Open Source CFD Toolbox           |
|  \\    /   O peration     | Version:  4.0                                   |
|   \\  /    A nd           | Web:      www.OpenFOAM.org                      |
|    \\/     M anipulation  |                                                 |
\*---------------------------------------------------------------------------*/
FoamFile
{
    version     2.0;
    format      ascii;
    class       volScalarField;
    location    "60/air";
    object      diffO2air;
}
// * * * * * * * * * * * * * * * * * * * * * * * * * * * * * * * * * * * * * //

dimensions      [0 2 -1 0 0 0 0];

internalField   nonuniform List<scalar> 
39776
(
2.942161e-05
2.941713e-05
2.941391e-05
2.941151e-05
2.940967e-05
2.940823e-05
2.940709e-05
2.940618e-05
2.940545e-05
2.940486e-05
2.940437e-05
2.940398e-05
2.940366e-05
2.940341e-05
2.94032e-05
2.940303e-05
2.940291e-05
2.940281e-05
2.940275e-05
2.940273e-05
2.940276e-05
2.940284e-05
2.9403e-05
2.940329e-05
2.940376e-05
2.940453e-05
2.940573e-05
2.940765e-05
2.941071e-05
2.941558e-05
2.942131e-05
2.941643e-05
2.941284e-05
2.941011e-05
2.940798e-05
2.940627e-05
2.94049e-05
2.940377e-05
2.940284e-05
2.940207e-05
2.940143e-05
2.94009e-05
2.940046e-05
2.940009e-05
2.939979e-05
2.939954e-05
2.939934e-05
2.939919e-05
2.939908e-05
2.939902e-05
2.939902e-05
2.939909e-05
2.939925e-05
2.939956e-05
2.940007e-05
2.94009e-05
2.940222e-05
2.940429e-05
2.940754e-05
2.941266e-05
2.942125e-05
2.941637e-05
2.94128e-05
2.941007e-05
2.940794e-05
2.940624e-05
2.940486e-05
2.940374e-05
2.940281e-05
2.940204e-05
2.94014e-05
2.940087e-05
2.940043e-05
2.940007e-05
2.939976e-05
2.939952e-05
2.939932e-05
2.939917e-05
2.939906e-05
2.939901e-05
2.939901e-05
2.939908e-05
2.939925e-05
2.939956e-05
2.940009e-05
2.940093e-05
2.940225e-05
2.940433e-05
2.940757e-05
2.941263e-05
2.94214e-05
2.941695e-05
2.941375e-05
2.941136e-05
2.940953e-05
2.94081e-05
2.940696e-05
2.940605e-05
2.940532e-05
2.940473e-05
2.940425e-05
2.940386e-05
2.940354e-05
2.940328e-05
2.940307e-05
2.94029e-05
2.940277e-05
2.940268e-05
2.940262e-05
2.94026e-05
2.940262e-05
2.94027e-05
2.940286e-05
2.940315e-05
2.940361e-05
2.940436e-05
2.940555e-05
2.940744e-05
2.941042e-05
2.941518e-05
2.942129e-05
2.941686e-05
2.941368e-05
2.94113e-05
2.940948e-05
2.940805e-05
2.940693e-05
2.940603e-05
2.94053e-05
2.940471e-05
2.940423e-05
2.940384e-05
2.940352e-05
2.940327e-05
2.940306e-05
2.940289e-05
2.940277e-05
2.940267e-05
2.940261e-05
2.940259e-05
2.940261e-05
2.940269e-05
2.940285e-05
2.940313e-05
2.94036e-05
2.940434e-05
2.940552e-05
2.940739e-05
2.941036e-05
2.941508e-05
2.942105e-05
2.941622e-05
2.941267e-05
2.940997e-05
2.940785e-05
2.940616e-05
2.94048e-05
2.940368e-05
2.940276e-05
2.9402e-05
2.940137e-05
2.940084e-05
2.94004e-05
2.940004e-05
2.939974e-05
2.939949e-05
2.93993e-05
2.939915e-05
2.939905e-05
2.939899e-05
2.939899e-05
2.939906e-05
2.939923e-05
2.939955e-05
2.940007e-05
2.94009e-05
2.940221e-05
2.940427e-05
2.940747e-05
2.941247e-05
2.942102e-05
2.941619e-05
2.941265e-05
2.940995e-05
2.940784e-05
2.940615e-05
2.940479e-05
2.940367e-05
2.940275e-05
2.940199e-05
2.940136e-05
2.940083e-05
2.940039e-05
2.940003e-05
2.939973e-05
2.939949e-05
2.939929e-05
2.939915e-05
2.939904e-05
2.939899e-05
2.939899e-05
2.939906e-05
2.939923e-05
2.939955e-05
2.940007e-05
2.94009e-05
2.940222e-05
2.940427e-05
2.940747e-05
2.941246e-05
2.942121e-05
2.941679e-05
2.941361e-05
2.941124e-05
2.940943e-05
2.940801e-05
2.940688e-05
2.940598e-05
2.940526e-05
2.940467e-05
2.940419e-05
2.94038e-05
2.940349e-05
2.940323e-05
2.940303e-05
2.940286e-05
2.940273e-05
2.940264e-05
2.940258e-05
2.940256e-05
2.940258e-05
2.940266e-05
2.940282e-05
2.94031e-05
2.940357e-05
2.940431e-05
2.940549e-05
2.940736e-05
2.941031e-05
2.941502e-05
2.942115e-05
2.941675e-05
2.941358e-05
2.941122e-05
2.94094e-05
2.940799e-05
2.940687e-05
2.940597e-05
2.940525e-05
2.940466e-05
2.940419e-05
2.94038e-05
2.940348e-05
2.940323e-05
2.940302e-05
2.940286e-05
2.940273e-05
2.940264e-05
2.940258e-05
2.940256e-05
2.940258e-05
2.940266e-05
2.940282e-05
2.94031e-05
2.940356e-05
2.94043e-05
2.940548e-05
2.940734e-05
2.941029e-05
2.941499e-05
2.942093e-05
2.941612e-05
2.941259e-05
2.94099e-05
2.94078e-05
2.940612e-05
2.940476e-05
2.940365e-05
2.940273e-05
2.940197e-05
2.940134e-05
2.940082e-05
2.940038e-05
2.940002e-05
2.939973e-05
2.939948e-05
2.939929e-05
2.939914e-05
2.939904e-05
2.939898e-05
2.939898e-05
2.939906e-05
2.939923e-05
2.939954e-05
2.940006e-05
2.940089e-05
2.94022e-05
2.940424e-05
2.940743e-05
2.941242e-05
2.942092e-05
2.941611e-05
2.941258e-05
2.940989e-05
2.940779e-05
2.940611e-05
2.940475e-05
2.940364e-05
2.940273e-05
2.940197e-05
2.940134e-05
2.940082e-05
2.940038e-05
2.940002e-05
2.939972e-05
2.939948e-05
2.939929e-05
2.939914e-05
2.939904e-05
2.939898e-05
2.939898e-05
2.939905e-05
2.939923e-05
2.939954e-05
2.940006e-05
2.940089e-05
2.94022e-05
2.940424e-05
2.940743e-05
2.941241e-05
2.942112e-05
2.941672e-05
2.941355e-05
2.941119e-05
2.940938e-05
2.940797e-05
2.940685e-05
2.940595e-05
2.940523e-05
2.940465e-05
2.940417e-05
2.940378e-05
2.940347e-05
2.940321e-05
2.940301e-05
2.940284e-05
2.940272e-05
2.940262e-05
2.940256e-05
2.940254e-05
2.940256e-05
2.940264e-05
2.940281e-05
2.940309e-05
2.940355e-05
2.940429e-05
2.940546e-05
2.940732e-05
2.941027e-05
2.941497e-05
2.94211e-05
2.941671e-05
2.941354e-05
2.941118e-05
2.940938e-05
2.940796e-05
2.940685e-05
2.940595e-05
2.940523e-05
2.940464e-05
2.940417e-05
2.940378e-05
2.940347e-05
2.940321e-05
2.940301e-05
2.940284e-05
2.940272e-05
2.940262e-05
2.940256e-05
2.940254e-05
2.940256e-05
2.940264e-05
2.940281e-05
2.940309e-05
2.940355e-05
2.940429e-05
2.940546e-05
2.940732e-05
2.941027e-05
2.941496e-05
2.942089e-05
2.941609e-05
2.941256e-05
2.940988e-05
2.940778e-05
2.94061e-05
2.940475e-05
2.940364e-05
2.940272e-05
2.940196e-05
2.940134e-05
2.940081e-05
2.940038e-05
2.940002e-05
2.939972e-05
2.939948e-05
2.939928e-05
2.939914e-05
2.939903e-05
2.939898e-05
2.939898e-05
2.939905e-05
2.939922e-05
2.939954e-05
2.940005e-05
2.940089e-05
2.94022e-05
2.940424e-05
2.940743e-05
2.94124e-05
2.942089e-05
2.941609e-05
2.941256e-05
2.940988e-05
2.940778e-05
2.94061e-05
2.940475e-05
2.940364e-05
2.940272e-05
2.940196e-05
2.940134e-05
2.940081e-05
2.940038e-05
2.940002e-05
2.939972e-05
2.939948e-05
2.939928e-05
2.939914e-05
2.939903e-05
2.939898e-05
2.939898e-05
2.939905e-05
2.939922e-05
2.939954e-05
2.940005e-05
2.940089e-05
2.94022e-05
2.940424e-05
2.940743e-05
2.94124e-05
2.94211e-05
2.941671e-05
2.941354e-05
2.941118e-05
2.940938e-05
2.940796e-05
2.940685e-05
2.940595e-05
2.940523e-05
2.940464e-05
2.940417e-05
2.940378e-05
2.940347e-05
2.940321e-05
2.940301e-05
2.940284e-05
2.940272e-05
2.940262e-05
2.940256e-05
2.940254e-05
2.940256e-05
2.940264e-05
2.940281e-05
2.940309e-05
2.940355e-05
2.940429e-05
2.940546e-05
2.940732e-05
2.941027e-05
2.941496e-05
2.942112e-05
2.941672e-05
2.941355e-05
2.941119e-05
2.940938e-05
2.940797e-05
2.940685e-05
2.940595e-05
2.940523e-05
2.940465e-05
2.940417e-05
2.940378e-05
2.940347e-05
2.940321e-05
2.940301e-05
2.940284e-05
2.940272e-05
2.940262e-05
2.940256e-05
2.940254e-05
2.940256e-05
2.940264e-05
2.940281e-05
2.940309e-05
2.940355e-05
2.940429e-05
2.940546e-05
2.940732e-05
2.941027e-05
2.941497e-05
2.942092e-05
2.941611e-05
2.941258e-05
2.940989e-05
2.940779e-05
2.940611e-05
2.940475e-05
2.940364e-05
2.940273e-05
2.940197e-05
2.940134e-05
2.940082e-05
2.940038e-05
2.940002e-05
2.939972e-05
2.939948e-05
2.939929e-05
2.939914e-05
2.939904e-05
2.939898e-05
2.939898e-05
2.939905e-05
2.939923e-05
2.939954e-05
2.940006e-05
2.940089e-05
2.94022e-05
2.940424e-05
2.940743e-05
2.941241e-05
2.942093e-05
2.941612e-05
2.941259e-05
2.94099e-05
2.94078e-05
2.940612e-05
2.940476e-05
2.940365e-05
2.940273e-05
2.940197e-05
2.940134e-05
2.940082e-05
2.940038e-05
2.940002e-05
2.939973e-05
2.939948e-05
2.939929e-05
2.939914e-05
2.939904e-05
2.939898e-05
2.939898e-05
2.939906e-05
2.939923e-05
2.939954e-05
2.940006e-05
2.940089e-05
2.94022e-05
2.940424e-05
2.940744e-05
2.941242e-05
2.942115e-05
2.941675e-05
2.941358e-05
2.941122e-05
2.94094e-05
2.940799e-05
2.940687e-05
2.940597e-05
2.940525e-05
2.940466e-05
2.940419e-05
2.94038e-05
2.940348e-05
2.940323e-05
2.940302e-05
2.940286e-05
2.940273e-05
2.940264e-05
2.940258e-05
2.940256e-05
2.940258e-05
2.940266e-05
2.940282e-05
2.94031e-05
2.940356e-05
2.94043e-05
2.940548e-05
2.940734e-05
2.941029e-05
2.941499e-05
2.942121e-05
2.941679e-05
2.941361e-05
2.941124e-05
2.940943e-05
2.940801e-05
2.940688e-05
2.940598e-05
2.940526e-05
2.940467e-05
2.940419e-05
2.94038e-05
2.940349e-05
2.940323e-05
2.940303e-05
2.940286e-05
2.940273e-05
2.940264e-05
2.940258e-05
2.940256e-05
2.940258e-05
2.940266e-05
2.940282e-05
2.94031e-05
2.940357e-05
2.940431e-05
2.940549e-05
2.940736e-05
2.941032e-05
2.941503e-05
2.942102e-05
2.941619e-05
2.941265e-05
2.940995e-05
2.940784e-05
2.940615e-05
2.940479e-05
2.940367e-05
2.940275e-05
2.940199e-05
2.940136e-05
2.940083e-05
2.940039e-05
2.940003e-05
2.939973e-05
2.939949e-05
2.939929e-05
2.939915e-05
2.939904e-05
2.939899e-05
2.939899e-05
2.939906e-05
2.939923e-05
2.939955e-05
2.940007e-05
2.94009e-05
2.940222e-05
2.940427e-05
2.940747e-05
2.941247e-05
2.942105e-05
2.941622e-05
2.941267e-05
2.940996e-05
2.940785e-05
2.940616e-05
2.94048e-05
2.940368e-05
2.940276e-05
2.9402e-05
2.940137e-05
2.940084e-05
2.94004e-05
2.940004e-05
2.939974e-05
2.939949e-05
2.93993e-05
2.939915e-05
2.939905e-05
2.939899e-05
2.939899e-05
2.939906e-05
2.939923e-05
2.939955e-05
2.940007e-05
2.94009e-05
2.940221e-05
2.940427e-05
2.940747e-05
2.941247e-05
2.942129e-05
2.941686e-05
2.941368e-05
2.94113e-05
2.940948e-05
2.940805e-05
2.940693e-05
2.940602e-05
2.94053e-05
2.940471e-05
2.940423e-05
2.940384e-05
2.940352e-05
2.940327e-05
2.940306e-05
2.940289e-05
2.940277e-05
2.940267e-05
2.940261e-05
2.940259e-05
2.940261e-05
2.940269e-05
2.940285e-05
2.940313e-05
2.94036e-05
2.940434e-05
2.940552e-05
2.940739e-05
2.941036e-05
2.941508e-05
2.94214e-05
2.941695e-05
2.941375e-05
2.941136e-05
2.940953e-05
2.940809e-05
2.940696e-05
2.940605e-05
2.940532e-05
2.940473e-05
2.940425e-05
2.940386e-05
2.940354e-05
2.940328e-05
2.940307e-05
2.94029e-05
2.940277e-05
2.940268e-05
2.940262e-05
2.94026e-05
2.940262e-05
2.94027e-05
2.940286e-05
2.940315e-05
2.940361e-05
2.940436e-05
2.940555e-05
2.940744e-05
2.941042e-05
2.941518e-05
2.942125e-05
2.941637e-05
2.94128e-05
2.941007e-05
2.940794e-05
2.940624e-05
2.940486e-05
2.940374e-05
2.940281e-05
2.940204e-05
2.94014e-05
2.940087e-05
2.940043e-05
2.940007e-05
2.939976e-05
2.939952e-05
2.939932e-05
2.939917e-05
2.939906e-05
2.939901e-05
2.939901e-05
2.939908e-05
2.939925e-05
2.939956e-05
2.940009e-05
2.940093e-05
2.940225e-05
2.940433e-05
2.940756e-05
2.941263e-05
2.942131e-05
2.941643e-05
2.941284e-05
2.941011e-05
2.940798e-05
2.940627e-05
2.94049e-05
2.940377e-05
2.940284e-05
2.940207e-05
2.940143e-05
2.94009e-05
2.940046e-05
2.940009e-05
2.939979e-05
2.939954e-05
2.939934e-05
2.939919e-05
2.939908e-05
2.939902e-05
2.939902e-05
2.939909e-05
2.939925e-05
2.939956e-05
2.940007e-05
2.94009e-05
2.940222e-05
2.940429e-05
2.940753e-05
2.941265e-05
2.942161e-05
2.941713e-05
2.941391e-05
2.941151e-05
2.940967e-05
2.940823e-05
2.940709e-05
2.940618e-05
2.940545e-05
2.940486e-05
2.940437e-05
2.940398e-05
2.940366e-05
2.940341e-05
2.94032e-05
2.940303e-05
2.94029e-05
2.940281e-05
2.940275e-05
2.940273e-05
2.940275e-05
2.940284e-05
2.9403e-05
2.940329e-05
2.940376e-05
2.940452e-05
2.940573e-05
2.940765e-05
2.94107e-05
2.941557e-05
2.942421e-05
2.942203e-05
2.941993e-05
2.941798e-05
2.941621e-05
2.941464e-05
2.941327e-05
2.941209e-05
2.941109e-05
2.941024e-05
2.940953e-05
2.940895e-05
2.940847e-05
2.94081e-05
2.940781e-05
2.940761e-05
2.94075e-05
2.940747e-05
2.940753e-05
2.940769e-05
2.940798e-05
2.940841e-05
2.940901e-05
2.940983e-05
2.941092e-05
2.941233e-05
2.941412e-05
2.941637e-05
2.941912e-05
2.942238e-05
2.94238e-05
2.942096e-05
2.941824e-05
2.941572e-05
2.941344e-05
2.941141e-05
2.940963e-05
2.940808e-05
2.940675e-05
2.94056e-05
2.940463e-05
2.940382e-05
2.940313e-05
2.940258e-05
2.940213e-05
2.940179e-05
2.940156e-05
2.940143e-05
2.940142e-05
2.940154e-05
2.940181e-05
2.940226e-05
2.940293e-05
2.940388e-05
2.940517e-05
2.940687e-05
2.940907e-05
2.941184e-05
2.941527e-05
2.941934e-05
2.942373e-05
2.942089e-05
2.941817e-05
2.941565e-05
2.941337e-05
2.941134e-05
2.940956e-05
2.940801e-05
2.940668e-05
2.940554e-05
2.940457e-05
2.940376e-05
2.940308e-05
2.940252e-05
2.940208e-05
2.940175e-05
2.940152e-05
2.94014e-05
2.94014e-05
2.940153e-05
2.940181e-05
2.940228e-05
2.940297e-05
2.940393e-05
2.940523e-05
2.940695e-05
2.940915e-05
2.941192e-05
2.94153e-05
2.941931e-05
2.9424e-05
2.942181e-05
2.941972e-05
2.941776e-05
2.9416e-05
2.941443e-05
2.941306e-05
2.941188e-05
2.941088e-05
2.941003e-05
2.940932e-05
2.940874e-05
2.940826e-05
2.940788e-05
2.94076e-05
2.94074e-05
2.940728e-05
2.940725e-05
2.94073e-05
2.940746e-05
2.940775e-05
2.940817e-05
2.940877e-05
2.940958e-05
2.941065e-05
2.941204e-05
2.941381e-05
2.941602e-05
2.941871e-05
2.942188e-05
2.942389e-05
2.942171e-05
2.941962e-05
2.941768e-05
2.941593e-05
2.941437e-05
2.941301e-05
2.941184e-05
2.941084e-05
2.940999e-05
2.940929e-05
2.94087e-05
2.940823e-05
2.940786e-05
2.940757e-05
2.940737e-05
2.940726e-05
2.940722e-05
2.940728e-05
2.940744e-05
2.940771e-05
2.940813e-05
2.940872e-05
2.940953e-05
2.941059e-05
2.941196e-05
2.941371e-05
2.94159e-05
2.941856e-05
2.942171e-05
2.942353e-05
2.94207e-05
2.941801e-05
2.94155e-05
2.941324e-05
2.941122e-05
2.940946e-05
2.940792e-05
2.94066e-05
2.940547e-05
2.940451e-05
2.94037e-05
2.940302e-05
2.940247e-05
2.940203e-05
2.94017e-05
2.940147e-05
2.940135e-05
2.940135e-05
2.940147e-05
2.940175e-05
2.940221e-05
2.940289e-05
2.940384e-05
2.940512e-05
2.940681e-05
2.940899e-05
2.941172e-05
2.941507e-05
2.941905e-05
2.94235e-05
2.942068e-05
2.941798e-05
2.941548e-05
2.941321e-05
2.94112e-05
2.940944e-05
2.94079e-05
2.940658e-05
2.940545e-05
2.940449e-05
2.940368e-05
2.940301e-05
2.940246e-05
2.940202e-05
2.940169e-05
2.940146e-05
2.940134e-05
2.940134e-05
2.940147e-05
2.940175e-05
2.940221e-05
2.940289e-05
2.940384e-05
2.940512e-05
2.940682e-05
2.940899e-05
2.941173e-05
2.941507e-05
2.941904e-05
2.942379e-05
2.942162e-05
2.941954e-05
2.94176e-05
2.941585e-05
2.941429e-05
2.941294e-05
2.941177e-05
2.941077e-05
2.940993e-05
2.940922e-05
2.940864e-05
2.940817e-05
2.94078e-05
2.940752e-05
2.940732e-05
2.94072e-05
2.940717e-05
2.940722e-05
2.940738e-05
2.940766e-05
2.940808e-05
2.940867e-05
2.940948e-05
2.941054e-05
2.941191e-05
2.941366e-05
2.941584e-05
2.941851e-05
2.942165e-05
2.942374e-05
2.942157e-05
2.94195e-05
2.941757e-05
2.941582e-05
2.941427e-05
2.941291e-05
2.941175e-05
2.941075e-05
2.940991e-05
2.940921e-05
2.940863e-05
2.940816e-05
2.940779e-05
2.940751e-05
2.940731e-05
2.940719e-05
2.940716e-05
2.940722e-05
2.940738e-05
2.940765e-05
2.940807e-05
2.940866e-05
2.940946e-05
2.941052e-05
2.941189e-05
2.941364e-05
2.941581e-05
2.941847e-05
2.942161e-05
2.94234e-05
2.942059e-05
2.94179e-05
2.941541e-05
2.941315e-05
2.941115e-05
2.940939e-05
2.940786e-05
2.940655e-05
2.940542e-05
2.940447e-05
2.940366e-05
2.940299e-05
2.940244e-05
2.940201e-05
2.940168e-05
2.940145e-05
2.940133e-05
2.940133e-05
2.940146e-05
2.940173e-05
2.940219e-05
2.940287e-05
2.940382e-05
2.94051e-05
2.940679e-05
2.940895e-05
2.941168e-05
2.941502e-05
2.941897e-05
2.942339e-05
2.942058e-05
2.941789e-05
2.94154e-05
2.941314e-05
2.941114e-05
2.940938e-05
2.940786e-05
2.940654e-05
2.940541e-05
2.940446e-05
2.940365e-05
2.940298e-05
2.940244e-05
2.9402e-05
2.940167e-05
2.940145e-05
2.940133e-05
2.940133e-05
2.940145e-05
2.940173e-05
2.940219e-05
2.940287e-05
2.940382e-05
2.94051e-05
2.940678e-05
2.940895e-05
2.941168e-05
2.941501e-05
2.941897e-05
2.94237e-05
2.942153e-05
2.941946e-05
2.941753e-05
2.941578e-05
2.941424e-05
2.941288e-05
2.941172e-05
2.941072e-05
2.940989e-05
2.940919e-05
2.940861e-05
2.940814e-05
2.940777e-05
2.940748e-05
2.940729e-05
2.940717e-05
2.940714e-05
2.94072e-05
2.940735e-05
2.940763e-05
2.940805e-05
2.940864e-05
2.940944e-05
2.94105e-05
2.941187e-05
2.941361e-05
2.941579e-05
2.941844e-05
2.942158e-05
2.942368e-05
2.942152e-05
2.941945e-05
2.941752e-05
2.941577e-05
2.941423e-05
2.941288e-05
2.941171e-05
2.941072e-05
2.940988e-05
2.940918e-05
2.94086e-05
2.940814e-05
2.940776e-05
2.940748e-05
2.940728e-05
2.940717e-05
2.940714e-05
2.940719e-05
2.940735e-05
2.940763e-05
2.940805e-05
2.940864e-05
2.940944e-05
2.94105e-05
2.941186e-05
2.941361e-05
2.941578e-05
2.941843e-05
2.942157e-05
2.942335e-05
2.942055e-05
2.941787e-05
2.941538e-05
2.941313e-05
2.941113e-05
2.940937e-05
2.940784e-05
2.940653e-05
2.940541e-05
2.940445e-05
2.940365e-05
2.940298e-05
2.940243e-05
2.9402e-05
2.940167e-05
2.940144e-05
2.940133e-05
2.940132e-05
2.940145e-05
2.940173e-05
2.940218e-05
2.940286e-05
2.940381e-05
2.940509e-05
2.940677e-05
2.940894e-05
2.941166e-05
2.9415e-05
2.941895e-05
2.942335e-05
2.942055e-05
2.941787e-05
2.941538e-05
2.941313e-05
2.941113e-05
2.940937e-05
2.940784e-05
2.940653e-05
2.940541e-05
2.940445e-05
2.940365e-05
2.940298e-05
2.940243e-05
2.9402e-05
2.940167e-05
2.940144e-05
2.940133e-05
2.940132e-05
2.940145e-05
2.940173e-05
2.940218e-05
2.940286e-05
2.940381e-05
2.940509e-05
2.940677e-05
2.940894e-05
2.941166e-05
2.9415e-05
2.941895e-05
2.942368e-05
2.942152e-05
2.941945e-05
2.941752e-05
2.941577e-05
2.941423e-05
2.941288e-05
2.941171e-05
2.941072e-05
2.940988e-05
2.940918e-05
2.94086e-05
2.940814e-05
2.940776e-05
2.940748e-05
2.940728e-05
2.940717e-05
2.940714e-05
2.940719e-05
2.940735e-05
2.940763e-05
2.940805e-05
2.940864e-05
2.940944e-05
2.941049e-05
2.941186e-05
2.941361e-05
2.941578e-05
2.941843e-05
2.942157e-05
2.94237e-05
2.942153e-05
2.941946e-05
2.941753e-05
2.941578e-05
2.941424e-05
2.941288e-05
2.941172e-05
2.941072e-05
2.940989e-05
2.940919e-05
2.940861e-05
2.940814e-05
2.940777e-05
2.940748e-05
2.940729e-05
2.940717e-05
2.940714e-05
2.94072e-05
2.940735e-05
2.940763e-05
2.940805e-05
2.940864e-05
2.940944e-05
2.94105e-05
2.941187e-05
2.941361e-05
2.941579e-05
2.941844e-05
2.942158e-05
2.942338e-05
2.942058e-05
2.941789e-05
2.94154e-05
2.941314e-05
2.941114e-05
2.940938e-05
2.940786e-05
2.940654e-05
2.940541e-05
2.940446e-05
2.940365e-05
2.940298e-05
2.940244e-05
2.9402e-05
2.940167e-05
2.940145e-05
2.940133e-05
2.940133e-05
2.940145e-05
2.940173e-05
2.940219e-05
2.940287e-05
2.940382e-05
2.94051e-05
2.940678e-05
2.940895e-05
2.941168e-05
2.941501e-05
2.941896e-05
2.94234e-05
2.942059e-05
2.94179e-05
2.941541e-05
2.941315e-05
2.941115e-05
2.940939e-05
2.940786e-05
2.940655e-05
2.940542e-05
2.940447e-05
2.940366e-05
2.940299e-05
2.940244e-05
2.940201e-05
2.940168e-05
2.940145e-05
2.940133e-05
2.940133e-05
2.940146e-05
2.940173e-05
2.940219e-05
2.940287e-05
2.940382e-05
2.94051e-05
2.940679e-05
2.940895e-05
2.941168e-05
2.941502e-05
2.941897e-05
2.942374e-05
2.942157e-05
2.94195e-05
2.941757e-05
2.941582e-05
2.941427e-05
2.941291e-05
2.941175e-05
2.941075e-05
2.940991e-05
2.940921e-05
2.940863e-05
2.940816e-05
2.940779e-05
2.940751e-05
2.940731e-05
2.940719e-05
2.940716e-05
2.940722e-05
2.940738e-05
2.940765e-05
2.940807e-05
2.940866e-05
2.940946e-05
2.941052e-05
2.941189e-05
2.941364e-05
2.941581e-05
2.941847e-05
2.942161e-05
2.942379e-05
2.942162e-05
2.941954e-05
2.94176e-05
2.941585e-05
2.941429e-05
2.941294e-05
2.941177e-05
2.941077e-05
2.940993e-05
2.940922e-05
2.940864e-05
2.940817e-05
2.94078e-05
2.940752e-05
2.940732e-05
2.94072e-05
2.940717e-05
2.940722e-05
2.940738e-05
2.940766e-05
2.940808e-05
2.940867e-05
2.940948e-05
2.941054e-05
2.941191e-05
2.941366e-05
2.941584e-05
2.941851e-05
2.942165e-05
2.94235e-05
2.942068e-05
2.941798e-05
2.941548e-05
2.941321e-05
2.94112e-05
2.940944e-05
2.94079e-05
2.940658e-05
2.940545e-05
2.940449e-05
2.940368e-05
2.940301e-05
2.940246e-05
2.940202e-05
2.940169e-05
2.940146e-05
2.940134e-05
2.940134e-05
2.940147e-05
2.940175e-05
2.940221e-05
2.940289e-05
2.940384e-05
2.940513e-05
2.940682e-05
2.940899e-05
2.941173e-05
2.941508e-05
2.941904e-05
2.942353e-05
2.94207e-05
2.9418e-05
2.94155e-05
2.941324e-05
2.941122e-05
2.940946e-05
2.940792e-05
2.94066e-05
2.940547e-05
2.940451e-05
2.94037e-05
2.940302e-05
2.940247e-05
2.940203e-05
2.94017e-05
2.940147e-05
2.940135e-05
2.940135e-05
2.940147e-05
2.940175e-05
2.940221e-05
2.940289e-05
2.940384e-05
2.940512e-05
2.940681e-05
2.940899e-05
2.941172e-05
2.941507e-05
2.941905e-05
2.942388e-05
2.942171e-05
2.941962e-05
2.941768e-05
2.941593e-05
2.941437e-05
2.941301e-05
2.941184e-05
2.941084e-05
2.940999e-05
2.940929e-05
2.94087e-05
2.940823e-05
2.940786e-05
2.940757e-05
2.940737e-05
2.940725e-05
2.940722e-05
2.940728e-05
2.940744e-05
2.940771e-05
2.940813e-05
2.940872e-05
2.940953e-05
2.941059e-05
2.941196e-05
2.941371e-05
2.941589e-05
2.941856e-05
2.942171e-05
2.9424e-05
2.942181e-05
2.941971e-05
2.941776e-05
2.9416e-05
2.941443e-05
2.941306e-05
2.941188e-05
2.941088e-05
2.941003e-05
2.940932e-05
2.940874e-05
2.940826e-05
2.940788e-05
2.94076e-05
2.94074e-05
2.940728e-05
2.940724e-05
2.94073e-05
2.940746e-05
2.940775e-05
2.940817e-05
2.940877e-05
2.940958e-05
2.941065e-05
2.941204e-05
2.941381e-05
2.941601e-05
2.94187e-05
2.942188e-05
2.942373e-05
2.942089e-05
2.941817e-05
2.941565e-05
2.941337e-05
2.941134e-05
2.940956e-05
2.940801e-05
2.940668e-05
2.940554e-05
2.940457e-05
2.940376e-05
2.940308e-05
2.940252e-05
2.940208e-05
2.940175e-05
2.940152e-05
2.94014e-05
2.94014e-05
2.940153e-05
2.940181e-05
2.940228e-05
2.940297e-05
2.940393e-05
2.940523e-05
2.940695e-05
2.940915e-05
2.941191e-05
2.94153e-05
2.94193e-05
2.94238e-05
2.942095e-05
2.941824e-05
2.941572e-05
2.941343e-05
2.941141e-05
2.940963e-05
2.940808e-05
2.940675e-05
2.94056e-05
2.940463e-05
2.940382e-05
2.940313e-05
2.940258e-05
2.940213e-05
2.940179e-05
2.940156e-05
2.940143e-05
2.940142e-05
2.940154e-05
2.940181e-05
2.940226e-05
2.940293e-05
2.940388e-05
2.940516e-05
2.940686e-05
2.940906e-05
2.941184e-05
2.941526e-05
2.941933e-05
2.942421e-05
2.942203e-05
2.941993e-05
2.941798e-05
2.941621e-05
2.941464e-05
2.941327e-05
2.941209e-05
2.941109e-05
2.941024e-05
2.940953e-05
2.940895e-05
2.940847e-05
2.94081e-05
2.940781e-05
2.940761e-05
2.94075e-05
2.940747e-05
2.940753e-05
2.940769e-05
2.940798e-05
2.94084e-05
2.940901e-05
2.940983e-05
2.941091e-05
2.941232e-05
2.941412e-05
2.941637e-05
2.941912e-05
2.942237e-05
2.942502e-05
2.942363e-05
2.942224e-05
2.942087e-05
2.941955e-05
2.941829e-05
2.941712e-05
2.941605e-05
2.941509e-05
2.941424e-05
2.941352e-05
2.94129e-05
2.94124e-05
2.941201e-05
2.941172e-05
2.941155e-05
2.941149e-05
2.941154e-05
2.941173e-05
2.941204e-05
2.941251e-05
2.941315e-05
2.941398e-05
2.941501e-05
2.941627e-05
2.941777e-05
2.941954e-05
2.942157e-05
2.942386e-05
2.94264e-05
2.942458e-05
2.942245e-05
2.942035e-05
2.94183e-05
2.941634e-05
2.941449e-05
2.941278e-05
2.941123e-05
2.940983e-05
2.940859e-05
2.940752e-05
2.940659e-05
2.940581e-05
2.940518e-05
2.940468e-05
2.940433e-05
2.940412e-05
2.940406e-05
2.940416e-05
2.940445e-05
2.940494e-05
2.940567e-05
2.940666e-05
2.940794e-05
2.940957e-05
2.941156e-05
2.941395e-05
2.941675e-05
2.941994e-05
2.94235e-05
2.942452e-05
2.942239e-05
2.942028e-05
2.941822e-05
2.941626e-05
2.941441e-05
2.94127e-05
2.941114e-05
2.940975e-05
2.940851e-05
2.940743e-05
2.940651e-05
2.940574e-05
2.940511e-05
2.940462e-05
2.940427e-05
2.940407e-05
2.940402e-05
2.940414e-05
2.940445e-05
2.940496e-05
2.94057e-05
2.940671e-05
2.940802e-05
2.940966e-05
2.941166e-05
2.941404e-05
2.941682e-05
2.941997e-05
2.942346e-05
2.942484e-05
2.942343e-05
2.942203e-05
2.942065e-05
2.941932e-05
2.941806e-05
2.941688e-05
2.941581e-05
2.941485e-05
2.9414e-05
2.941327e-05
2.941265e-05
2.941215e-05
2.941175e-05
2.941147e-05
2.941129e-05
2.941122e-05
2.941127e-05
2.941144e-05
2.941176e-05
2.941222e-05
2.941285e-05
2.941366e-05
2.941467e-05
2.941592e-05
2.94174e-05
2.941913e-05
2.942112e-05
2.942336e-05
2.942583e-05
2.942473e-05
2.942333e-05
2.942194e-05
2.942057e-05
2.941924e-05
2.941798e-05
2.941681e-05
2.941575e-05
2.941479e-05
2.941395e-05
2.941322e-05
2.94126e-05
2.94121e-05
2.941171e-05
2.941142e-05
2.941124e-05
2.941117e-05
2.941122e-05
2.941139e-05
2.94117e-05
2.941215e-05
2.941277e-05
2.941357e-05
2.941457e-05
2.94158e-05
2.941726e-05
2.941897e-05
2.942094e-05
2.942316e-05
2.942561e-05
2.942433e-05
2.942221e-05
2.942011e-05
2.941807e-05
2.941611e-05
2.941428e-05
2.941258e-05
2.941103e-05
2.940964e-05
2.940841e-05
2.940734e-05
2.940643e-05
2.940566e-05
2.940503e-05
2.940454e-05
2.940419e-05
2.940399e-05
2.940393e-05
2.940405e-05
2.940434e-05
2.940484e-05
2.940556e-05
2.940655e-05
2.940784e-05
2.940945e-05
2.941143e-05
2.941378e-05
2.941653e-05
2.941967e-05
2.942315e-05
2.94243e-05
2.942218e-05
2.942008e-05
2.941804e-05
2.941608e-05
2.941425e-05
2.941255e-05
2.9411e-05
2.940962e-05
2.940839e-05
2.940732e-05
2.94064e-05
2.940563e-05
2.940501e-05
2.940452e-05
2.940417e-05
2.940397e-05
2.940392e-05
2.940404e-05
2.940434e-05
2.940484e-05
2.940557e-05
2.940656e-05
2.940785e-05
2.940947e-05
2.941144e-05
2.94138e-05
2.941655e-05
2.941968e-05
2.942315e-05
2.942464e-05
2.942324e-05
2.942185e-05
2.942048e-05
2.941915e-05
2.94179e-05
2.941673e-05
2.941566e-05
2.941471e-05
2.941387e-05
2.941314e-05
2.941253e-05
2.941202e-05
2.941163e-05
2.941135e-05
2.941117e-05
2.94111e-05
2.941115e-05
2.941132e-05
2.941163e-05
2.941209e-05
2.941271e-05
2.941351e-05
2.941451e-05
2.941574e-05
2.94172e-05
2.941892e-05
2.942089e-05
2.942311e-05
2.942556e-05
2.942459e-05
2.942319e-05
2.94218e-05
2.942044e-05
2.941912e-05
2.941786e-05
2.94167e-05
2.941564e-05
2.941468e-05
2.941385e-05
2.941312e-05
2.941251e-05
2.941201e-05
2.941162e-05
2.941133e-05
2.941116e-05
2.941109e-05
2.941114e-05
2.941131e-05
2.941162e-05
2.941207e-05
2.941269e-05
2.941349e-05
2.941449e-05
2.941572e-05
2.941718e-05
2.941889e-05
2.942085e-05
2.942306e-05
2.942551e-05
2.94242e-05
2.942209e-05
2.942e-05
2.941796e-05
2.941602e-05
2.941419e-05
2.941249e-05
2.941096e-05
2.940957e-05
2.940835e-05
2.940729e-05
2.940637e-05
2.940561e-05
2.940498e-05
2.94045e-05
2.940415e-05
2.940395e-05
2.94039e-05
2.940402e-05
2.940431e-05
2.940481e-05
2.940554e-05
2.940653e-05
2.940781e-05
2.940943e-05
2.94114e-05
2.941375e-05
2.941649e-05
2.94196e-05
2.942307e-05
2.942419e-05
2.942208e-05
2.941999e-05
2.941795e-05
2.941601e-05
2.941418e-05
2.941248e-05
2.941094e-05
2.940956e-05
2.940834e-05
2.940728e-05
2.940637e-05
2.94056e-05
2.940497e-05
2.940449e-05
2.940415e-05
2.940395e-05
2.94039e-05
2.940401e-05
2.940431e-05
2.940481e-05
2.940554e-05
2.940653e-05
2.940781e-05
2.940942e-05
2.941139e-05
2.941375e-05
2.941648e-05
2.94196e-05
2.942306e-05
2.942455e-05
2.942315e-05
2.942176e-05
2.94204e-05
2.941908e-05
2.941783e-05
2.941666e-05
2.94156e-05
2.941465e-05
2.941381e-05
2.941309e-05
2.941248e-05
2.941198e-05
2.941159e-05
2.94113e-05
2.941113e-05
2.941106e-05
2.941111e-05
2.941128e-05
2.941159e-05
2.941204e-05
2.941266e-05
2.941346e-05
2.941446e-05
2.941569e-05
2.941715e-05
2.941886e-05
2.942082e-05
2.942303e-05
2.942548e-05
2.942453e-05
2.942314e-05
2.942175e-05
2.942039e-05
2.941907e-05
2.941782e-05
2.941665e-05
2.941559e-05
2.941464e-05
2.941381e-05
2.941308e-05
2.941247e-05
2.941197e-05
2.941158e-05
2.94113e-05
2.941112e-05
2.941106e-05
2.941111e-05
2.941128e-05
2.941159e-05
2.941204e-05
2.941266e-05
2.941346e-05
2.941446e-05
2.941568e-05
2.941714e-05
2.941885e-05
2.942081e-05
2.942302e-05
2.942546e-05
2.942416e-05
2.942205e-05
2.941996e-05
2.941793e-05
2.941599e-05
2.941416e-05
2.941247e-05
2.941093e-05
2.940955e-05
2.940833e-05
2.940727e-05
2.940636e-05
2.940559e-05
2.940497e-05
2.940448e-05
2.940414e-05
2.940394e-05
2.940389e-05
2.940401e-05
2.94043e-05
2.94048e-05
2.940553e-05
2.940652e-05
2.94078e-05
2.940941e-05
2.941138e-05
2.941373e-05
2.941647e-05
2.941958e-05
2.942304e-05
2.942416e-05
2.942205e-05
2.941996e-05
2.941793e-05
2.941599e-05
2.941416e-05
2.941247e-05
2.941093e-05
2.940955e-05
2.940833e-05
2.940727e-05
2.940636e-05
2.940559e-05
2.940497e-05
2.940448e-05
2.940414e-05
2.940394e-05
2.940389e-05
2.940401e-05
2.94043e-05
2.94048e-05
2.940553e-05
2.940652e-05
2.94078e-05
2.940941e-05
2.941138e-05
2.941373e-05
2.941647e-05
2.941958e-05
2.942304e-05
2.942453e-05
2.942314e-05
2.942175e-05
2.942039e-05
2.941907e-05
2.941782e-05
2.941665e-05
2.941559e-05
2.941464e-05
2.941381e-05
2.941308e-05
2.941247e-05
2.941197e-05
2.941158e-05
2.94113e-05
2.941112e-05
2.941106e-05
2.941111e-05
2.941128e-05
2.941159e-05
2.941204e-05
2.941266e-05
2.941346e-05
2.941446e-05
2.941568e-05
2.941714e-05
2.941885e-05
2.942081e-05
2.942302e-05
2.942546e-05
2.942455e-05
2.942315e-05
2.942176e-05
2.94204e-05
2.941908e-05
2.941783e-05
2.941666e-05
2.94156e-05
2.941465e-05
2.941381e-05
2.941309e-05
2.941248e-05
2.941198e-05
2.941159e-05
2.94113e-05
2.941113e-05
2.941106e-05
2.941111e-05
2.941128e-05
2.941159e-05
2.941204e-05
2.941266e-05
2.941346e-05
2.941446e-05
2.941569e-05
2.941715e-05
2.941886e-05
2.942082e-05
2.942303e-05
2.942547e-05
2.942419e-05
2.942208e-05
2.941999e-05
2.941795e-05
2.941601e-05
2.941418e-05
2.941248e-05
2.941094e-05
2.940956e-05
2.940834e-05
2.940728e-05
2.940637e-05
2.94056e-05
2.940497e-05
2.940449e-05
2.940415e-05
2.940395e-05
2.94039e-05
2.940401e-05
2.940431e-05
2.940481e-05
2.940554e-05
2.940653e-05
2.940781e-05
2.940942e-05
2.941139e-05
2.941374e-05
2.941648e-05
2.94196e-05
2.942306e-05
2.94242e-05
2.942209e-05
2.942e-05
2.941796e-05
2.941602e-05
2.941419e-05
2.941249e-05
2.941095e-05
2.940957e-05
2.940835e-05
2.940729e-05
2.940637e-05
2.940561e-05
2.940498e-05
2.94045e-05
2.940415e-05
2.940395e-05
2.94039e-05
2.940402e-05
2.940431e-05
2.940481e-05
2.940554e-05
2.940653e-05
2.940781e-05
2.940943e-05
2.94114e-05
2.941375e-05
2.941649e-05
2.94196e-05
2.942307e-05
2.942459e-05
2.942319e-05
2.94218e-05
2.942044e-05
2.941912e-05
2.941786e-05
2.94167e-05
2.941564e-05