/*--------------------------------*- C++ -*----------------------------------*\
| =========                 |                                                 |
| \\      /  F ield         | OpenFOAM: The Open Source CFD Toolbox           |
|  \\    /   O peration     | Version:  4.0                                   |
|   \\  /    A nd           | Web:      www.OpenFOAM.org                      |
|    \\/     M anipulation  |                                                 |
\*---------------------------------------------------------------------------*/
FoamFile
{
    version     2.0;
    format      ascii;
    class       volScalarField;
    location    "60/air";
    object      k;
}
// * * * * * * * * * * * * * * * * * * * * * * * * * * * * * * * * * * * * * //

dimensions      [1 1 -3 -1 0 0 0];

internalField   nonuniform List<scalar> 
39776
(
0.02920301
0.02920088
0.02919934
0.0291982
0.02919732
0.02919664
0.02919609
0.02919566
0.02919531
0.02919503
0.0291948
0.02919461
0.02919446
0.02919433
0.02919423
0.02919415
0.02919409
0.02919404
0.029194
0.02919399
0.02919399
0.02919401
0.02919407
0.02919418
0.02919437
0.02919467
0.02919516
0.02919595
0.02919722
0.02919927
0.02920286
0.02920054
0.02919883
0.02919753
0.02919651
0.0291957
0.02919504
0.02919451
0.02919406
0.0291937
0.02919339
0.02919314
0.02919293
0.02919275
0.0291926
0.02919248
0.02919239
0.02919231
0.02919226
0.02919222
0.02919222
0.02919224
0.0291923
0.02919243
0.02919265
0.02919301
0.02919358
0.02919449
0.02919593
0.0291982
0.02920283
0.02920051
0.02919881
0.02919751
0.02919649
0.02919568
0.02919503
0.02919449
0.02919405
0.02919368
0.02919338
0.02919312
0.02919291
0.02919274
0.02919259
0.02919247
0.02919238
0.0291923
0.02919225
0.02919222
0.02919221
0.02919224
0.0291923
0.02919243
0.02919266
0.02919302
0.02919359
0.0291945
0.02919593
0.02919818
0.02920291
0.02920079
0.02919927
0.02919813
0.02919726
0.02919657
0.02919603
0.0291956
0.02919525
0.02919497
0.02919474
0.02919455
0.0291944
0.02919427
0.02919417
0.02919409
0.02919402
0.02919397
0.02919394
0.02919392
0.02919392
0.02919395
0.02919401
0.02919412
0.0291943
0.0291946
0.02919509
0.02919587
0.02919712
0.02919913
0.02920286
0.02920075
0.02919923
0.0291981
0.02919723
0.02919655
0.02919602
0.02919559
0.02919524
0.02919496
0.02919473
0.02919454
0.02919439
0.02919427
0.02919416
0.02919408
0.02919402
0.02919397
0.02919394
0.02919392
0.02919392
0.02919395
0.029194
0.02919411
0.02919429
0.02919459
0.02919508
0.02919585
0.0291971
0.0291991
0.02920274
0.02920044
0.02919875
0.02919746
0.02919645
0.02919565
0.029195
0.02919447
0.02919403
0.02919366
0.02919336
0.02919311
0.0291929
0.02919273
0.02919258
0.02919246
0.02919237
0.02919229
0.02919224
0.02919221
0.0291922
0.02919223
0.0291923
0.02919243
0.02919265
0.02919301
0.02919358
0.02919447
0.02919589
0.0291981
0.02920272
0.02920043
0.02919874
0.02919745
0.02919645
0.02919564
0.02919499
0.02919446
0.02919402
0.02919366
0.02919336
0.02919311
0.0291929
0.02919272
0.02919258
0.02919246
0.02919237
0.02919229
0.02919224
0.02919221
0.0291922
0.02919223
0.02919229
0.02919242
0.02919265
0.029193
0.02919358
0.02919447
0.02919588
0.02919809
0.02920282
0.02920072
0.0291992
0.02919807
0.02919721
0.02919653
0.029196
0.02919557
0.02919522
0.02919494
0.02919471
0.02919453
0.02919437
0.02919425
0.02919415
0.02919407
0.029194
0.02919396
0.02919392
0.02919391
0.02919391
0.02919393
0.02919399
0.0291941
0.02919428
0.02919458
0.02919506
0.02919583
0.02919707
0.02919906
0.02920279
0.0292007
0.02919919
0.02919806
0.0291972
0.02919652
0.02919599
0.02919556
0.02919522
0.02919494
0.02919471
0.02919452
0.02919437
0.02919425
0.02919415
0.02919407
0.029194
0.02919396
0.02919392
0.0291939
0.02919391
0.02919393
0.02919399
0.0291941
0.02919428
0.02919458
0.02919506
0.02919583
0.02919706
0.02919905
0.02920268
0.02920039
0.02919871
0.02919743
0.02919643
0.02919563
0.02919498
0.02919445
0.02919401
0.02919365
0.02919335
0.0291931
0.02919289
0.02919272
0.02919258
0.02919246
0.02919236
0.02919229
0.02919224
0.02919221
0.0291922
0.02919222
0.02919229
0.02919242
0.02919264
0.029193
0.02919357
0.02919446
0.02919587
0.02919807
0.02920268
0.02920039
0.02919871
0.02919743
0.02919642
0.02919563
0.02919498
0.02919445
0.02919401
0.02919365
0.02919335
0.0291931
0.02919289
0.02919272
0.02919257
0.02919246
0.02919236
0.02919229
0.02919224
0.0291922
0.0291922
0.02919222
0.02919229
0.02919242
0.02919264
0.029193
0.02919357
0.02919446
0.02919587
0.02919807
0.02920278
0.02920068
0.02919918
0.02919805
0.02919719
0.02919651
0.02919598
0.02919555
0.02919521
0.02919493
0.0291947
0.02919452
0.02919436
0.02919424
0.02919414
0.02919406
0.029194
0.02919395
0.02919392
0.0291939
0.0291939
0.02919392
0.02919398
0.02919409
0.02919427
0.02919457
0.02919505
0.02919582
0.02919705
0.02919904
0.02920277
0.02920068
0.02919917
0.02919805
0.02919718
0.02919651
0.02919598
0.02919555
0.02919521
0.02919493
0.0291947
0.02919451
0.02919436
0.02919424
0.02919414
0.02919406
0.029194
0.02919395
0.02919392
0.0291939
0.0291939
0.02919392
0.02919398
0.02919409
0.02919427
0.02919457
0.02919505
0.02919582
0.02919705
0.02919904
0.02920266
0.02920038
0.0291987
0.02919742
0.02919642
0.02919562
0.02919497
0.02919444
0.02919401
0.02919365
0.02919335
0.0291931
0.02919289
0.02919272
0.02919257
0.02919246
0.02919236
0.02919229
0.02919224
0.0291922
0.0291922
0.02919222
0.02919229
0.02919242
0.02919264
0.029193
0.02919357
0.02919446
0.02919586
0.02919806
0.02920266
0.02920038
0.0291987
0.02919742
0.02919642
0.02919562
0.02919497
0.02919444
0.02919401
0.02919365
0.02919335
0.0291931
0.02919289
0.02919272
0.02919257
0.02919246
0.02919236
0.02919229
0.02919224
0.0291922
0.0291922
0.02919222
0.02919229
0.02919242
0.02919264
0.029193
0.02919357
0.02919446
0.02919586
0.02919806
0.02920277
0.02920068
0.02919917
0.02919805
0.02919718
0.02919651
0.02919598
0.02919555
0.02919521
0.02919493
0.0291947
0.02919451
0.02919436
0.02919424
0.02919414
0.02919406
0.029194
0.02919395
0.02919392
0.0291939
0.0291939
0.02919392
0.02919398
0.02919409
0.02919427
0.02919457
0.02919505
0.02919582
0.02919705
0.02919904
0.02920278
0.02920068
0.02919918
0.02919805
0.02919719
0.02919651
0.02919598
0.02919555
0.02919521
0.02919493
0.0291947
0.02919452
0.02919436
0.02919424
0.02919414
0.02919406
0.029194
0.02919395
0.02919392
0.0291939
0.0291939
0.02919392
0.02919398
0.02919409
0.02919427
0.02919457
0.02919505
0.02919582
0.02919705
0.02919904
0.02920267
0.02920039
0.02919871
0.02919743
0.02919642
0.02919562
0.02919498
0.02919445
0.02919401
0.02919365
0.02919335
0.0291931
0.02919289
0.02919272
0.02919257
0.02919246
0.02919236
0.02919229
0.02919224
0.0291922
0.0291922
0.02919222
0.02919229
0.02919242
0.02919264
0.029193
0.02919357
0.02919446
0.02919587
0.02919807
0.02920268
0.02920039
0.02919871
0.02919743
0.02919643
0.02919563
0.02919498
0.02919445
0.02919401
0.02919365
0.02919335
0.0291931
0.02919289
0.02919272
0.02919258
0.02919246
0.02919236
0.02919229
0.02919224
0.02919221
0.0291922
0.02919222
0.02919229
0.02919242
0.02919264
0.029193
0.02919357
0.02919446
0.02919587
0.02919807
0.02920279
0.0292007
0.02919919
0.02919806
0.0291972
0.02919652
0.02919599
0.02919556
0.02919522
0.02919494
0.02919471
0.02919452
0.02919437
0.02919425
0.02919415
0.02919407
0.029194
0.02919396
0.02919392
0.0291939
0.02919391
0.02919393
0.02919399
0.0291941
0.02919428
0.02919458
0.02919506
0.02919583
0.02919706
0.02919905
0.02920282
0.02920072
0.0291992
0.02919807
0.02919721
0.02919653
0.029196
0.02919557
0.02919522
0.02919494
0.02919471
0.02919452
0.02919437
0.02919425
0.02919415
0.02919407
0.029194
0.02919396
0.02919392
0.02919391
0.02919391
0.02919393
0.02919399
0.0291941
0.02919428
0.02919458
0.02919506
0.02919583
0.02919707
0.02919906
0.02920272
0.02920043
0.02919874
0.02919745
0.02919645
0.02919564
0.02919499
0.02919446
0.02919402
0.02919366
0.02919336
0.02919311
0.0291929
0.02919272
0.02919258
0.02919246
0.02919237
0.02919229
0.02919224
0.02919221
0.0291922
0.02919223
0.02919229
0.02919242
0.02919265
0.029193
0.02919358
0.02919447
0.02919588
0.02919809
0.02920274
0.02920044
0.02919875
0.02919746
0.02919645
0.02919565
0.029195
0.02919447
0.02919403
0.02919366
0.02919336
0.02919311
0.0291929
0.02919273
0.02919258
0.02919246
0.02919237
0.02919229
0.02919224
0.02919221
0.0291922
0.02919223
0.0291923
0.02919243
0.02919265
0.029193
0.02919358
0.02919447
0.02919589
0.0291981
0.02920286
0.02920075
0.02919923
0.0291981
0.02919723
0.02919655
0.02919602
0.02919559
0.02919524
0.02919496
0.02919473
0.02919454
0.02919439
0.02919427
0.02919416
0.02919408
0.02919402
0.02919397
0.02919394
0.02919392
0.02919392
0.02919395
0.029194
0.02919411
0.02919429
0.02919459
0.02919508
0.02919585
0.0291971
0.0291991
0.02920291
0.02920079
0.02919927
0.02919813
0.02919726
0.02919657
0.02919603
0.0291956
0.02919525
0.02919497
0.02919474
0.02919455
0.0291944
0.02919427
0.02919417
0.02919409
0.02919402
0.02919397
0.02919394
0.02919392
0.02919392
0.02919395
0.02919401
0.02919412
0.0291943
0.0291946
0.02919509
0.02919587
0.02919712
0.02919913
0.02920283
0.02920051
0.02919881
0.02919751
0.02919649
0.02919568
0.02919503
0.02919449
0.02919405
0.02919368
0.02919338
0.02919312
0.02919291
0.02919274
0.02919259
0.02919247
0.02919238
0.0291923
0.02919225
0.02919222
0.02919221
0.02919224
0.0291923
0.02919243
0.02919266
0.02919302
0.02919359
0.0291945
0.02919593
0.02919817
0.02920286
0.02920054
0.02919883
0.02919753
0.02919651
0.0291957
0.02919504
0.02919451
0.02919406
0.0291937
0.02919339
0.02919314
0.02919293
0.02919275
0.0291926
0.02919248
0.02919239
0.02919231
0.02919226
0.02919222
0.02919222
0.02919224
0.0291923
0.02919243
0.02919265
0.02919301
0.02919358
0.02919449
0.02919593
0.0291982
0.02920301
0.02920088
0.02919934
0.0291982
0.02919732
0.02919664
0.02919609
0.02919566
0.02919531
0.02919503
0.0291948
0.02919461
0.02919446
0.02919433
0.02919423
0.02919415
0.02919409
0.02919404
0.029194
0.02919399
0.02919399
0.02919401
0.02919407
0.02919418
0.02919436
0.02919467
0.02919516
0.02919595
0.02919722
0.02919927
0.02920419
0.02920316
0.02920216
0.02920123
0.02920039
0.02919964
0.02919899
0.02919843
0.02919795
0.02919754
0.0291972
0.02919691
0.02919668
0.02919649
0.02919634
0.02919623
0.02919615
0.02919611
0.0291961
0.02919613
0.0291962
0.02919633
0.02919651
0.02919677
0.02919712
0.02919759
0.02919819
0.02919893
0.02919985
0.02920091
0.029204
0.02920265
0.02920135
0.02920015
0.02919907
0.0291981
0.02919726
0.02919652
0.02919588
0.02919534
0.02919488
0.02919448
0.02919415
0.02919388
0.02919366
0.02919349
0.02919337
0.02919329
0.02919326
0.02919328
0.02919337
0.02919354
0.02919379
0.02919416
0.02919467
0.02919534
0.02919623
0.02919734
0.02919872
0.02920035
0.02920397
0.02920262
0.02920132
0.02920012
0.02919904
0.02919807
0.02919722
0.02919649
0.02919585
0.02919531
0.02919485
0.02919446
0.02919413
0.02919386
0.02919364
0.02919347
0.02919335
0.02919327
0.02919325
0.02919328
0.02919337
0.02919354
0.0291938
0.02919418
0.02919469
0.02919537
0.02919625
0.02919736
0.02919871
0.02920031
0.0292041
0.02920306
0.02920206
0.02920113
0.02920029
0.02919954
0.02919889
0.02919833
0.02919785
0.02919744
0.0291971
0.02919681
0.02919658
0.02919639
0.02919624
0.02919613
0.02919605
0.02919601
0.029196
0.02919603
0.0291961
0.02919623
0.02919641
0.02919668
0.02919703
0.0291975
0.02919809
0.02919884
0.02919975
0.02920081
0.02920404
0.02920301
0.02920201
0.02920109
0.02920025
0.02919951
0.02919886
0.0291983
0.02919783
0.02919742
0.02919708
0.0291968
0.02919657
0.02919638
0.02919623
0.02919612
0.02919604
0.029196
0.02919599
0.02919602
0.02919609
0.02919622
0.0291964
0.02919667
0.02919702
0.02919748
0.02919807
0.02919882
0.02919972
0.02920078
0.02920387
0.02920253
0.02920124
0.02920005
0.02919898
0.02919802
0.02919718
0.02919645
0.02919581
0.02919527
0.02919481
0.02919443
0.0291941
0.02919383
0.02919362
0.02919345
0.02919333
0.02919325
0.02919322
0.02919325
0.02919334
0.02919351
0.02919377
0.02919414
0.02919464
0.02919531
0.02919618
0.02919728
0.02919862
0.0292002
0.02920386
0.02920251
0.02920123
0.02920004
0.02919896
0.02919801
0.02919717
0.02919644
0.02919581
0.02919527
0.02919481
0.02919442
0.02919409
0.02919383
0.02919361
0.02919344
0.02919332
0.02919325
0.02919322
0.02919325
0.02919334
0.02919351
0.02919377
0.02919414
0.02919464
0.02919531
0.02919618
0.02919727
0.02919861
0.02920019
0.029204
0.02920296
0.02920197
0.02920105
0.02920022
0.02919948
0.02919883
0.02919827
0.0291978
0.02919739
0.02919705
0.02919677
0.02919654
0.02919635
0.02919621
0.02919609
0.02919602
0.02919597
0.02919597
0.02919599
0.02919607
0.02919619
0.02919638
0.02919663
0.02919699
0.02919745
0.02919804
0.02919878
0.02919968
0.02920072
0.02920397
0.02920294
0.02920195
0.02920103
0.0292002
0.02919946
0.02919882
0.02919826
0.02919779
0.02919739
0.02919705
0.02919677
0.02919654
0.02919635
0.0291962
0.02919609
0.02919602
0.02919597
0.02919596
0.02919599
0.02919606
0.02919619
0.02919637
0.02919663
0.02919698
0.02919744
0.02919803
0.02919877
0.02919967
0.02920071
0.02920381
0.02920247
0.02920119
0.02920001
0.02919894
0.02919798
0.02919715
0.02919642
0.02919579
0.02919525
0.0291948
0.02919441
0.02919409
0.02919382
0.0291936
0.02919344
0.02919331
0.02919324
0.02919321
0.02919324
0.02919334
0.0291935
0.02919376
0.02919413
0.02919463
0.0291953
0.02919616
0.02919725
0.02919859
0.02920016
0.0292038
0.02920247
0.02920119
0.0292
0.02919893
0.02919798
0.02919714
0.02919641
0.02919579
0.02919525
0.02919479
0.02919441
0.02919408
0.02919382
0.0291936
0.02919343
0.02919331
0.02919324
0.02919321
0.02919324
0.02919333
0.0291935
0.02919376
0.02919412
0.02919463
0.0291953
0.02919616
0.02919725
0.02919858
0.02920016
0.02920395
0.02920292
0.02920194
0.02920102
0.02920019
0.02919945
0.0291988
0.02919825
0.02919777
0.02919737
0.02919704
0.02919675
0.02919652
0.02919634
0.02919619
0.02919608
0.029196
0.02919596
0.02919595
0.02919598
0.02919605
0.02919618
0.02919636
0.02919662
0.02919697
0.02919743
0.02919802
0.02919875
0.02919965
0.02920069
0.02920394
0.02920292
0.02920193
0.02920101
0.02920018
0.02919945
0.0291988
0.02919825
0.02919777
0.02919737
0.02919703
0.02919675
0.02919652
0.02919634
0.02919619
0.02919608
0.029196
0.02919596
0.02919595
0.02919598
0.02919605
0.02919618
0.02919636
0.02919662
0.02919697
0.02919743
0.02919801
0.02919875
0.02919965
0.02920069
0.02920379
0.02920245
0.02920118
0.02919999
0.02919892
0.02919797
0.02919713
0.02919641
0.02919578
0.02919525
0.02919479
0.0291944
0.02919408
0.02919381
0.0291936
0.02919343
0.02919331
0.02919324
0.02919321
0.02919324
0.02919333
0.0291935
0.02919375
0.02919412
0.02919462
0.02919529
0.02919616
0.02919725
0.02919858
0.02920015
0.02920379
0.02920245
0.02920118
0.02919999
0.02919892
0.02919797
0.02919713
0.02919641
0.02919578
0.02919525
0.02919479
0.0291944
0.02919408
0.02919381
0.0291936
0.02919343
0.02919331
0.02919324
0.02919321
0.02919324
0.02919333
0.0291935
0.02919375
0.02919412
0.02919462
0.02919529
0.02919616
0.02919725
0.02919858
0.02920015
0.02920394
0.02920292
0.02920193
0.02920101
0.02920018
0.02919945
0.0291988
0.02919825
0.02919777
0.02919737
0.02919703
0.02919675
0.02919652
0.02919634
0.02919619
0.02919608
0.029196
0.02919596
0.02919595
0.02919598
0.02919605
0.02919618
0.02919636
0.02919662
0.02919697
0.02919743
0.02919801
0.02919875
0.02919965
0.02920069
0.02920395
0.02920292
0.02920194
0.02920102
0.02920019
0.02919945
0.0291988
0.02919825
0.02919777
0.02919737
0.02919704
0.02919675
0.02919652
0.02919634
0.02919619
0.02919608
0.029196
0.02919596
0.02919595
0.02919598
0.02919605
0.02919618
0.02919636
0.02919662
0.02919697
0.02919743
0.02919802
0.02919875
0.02919965
0.02920069
0.0292038
0.02920247
0.02920119
0.0292
0.02919893
0.02919798
0.02919714
0.02919641
0.02919579
0.02919525
0.02919479
0.02919441
0.02919408
0.02919382
0.0291936
0.02919343
0.02919331
0.02919324
0.02919321
0.02919324
0.02919333
0.0291935
0.02919376
0.02919412
0.02919463
0.0291953
0.02919616
0.02919725
0.02919858
0.02920016
0.02920381
0.02920247
0.02920119
0.02920001
0.02919894
0.02919798
0.02919715
0.02919642
0.02919579
0.02919525
0.0291948
0.02919441
0.02919409
0.02919382
0.0291936
0.02919344
0.02919331
0.02919324
0.02919321
0.02919324
0.02919334
0.0291935
0.02919376
0.02919413
0.02919463
0.0291953
0.02919616
0.02919725
0.02919859
0.02920016
0.02920397
0.02920294
0.02920195
0.02920103
0.0292002
0.02919946
0.02919882
0.02919826
0.02919779
0.02919739
0.02919705
0.02919677
0.02919654
0.02919635
0.0291962
0.02919609
0.02919601
0.02919597
0.02919596
0.02919599
0.02919606
0.02919619
0.02919637
0.02919663
0.02919698
0.02919744
0.02919803
0.02919877
0.02919967
0.02920071
0.029204
0.02920296
0.02920197
0.02920105
0.02920022
0.02919948
0.02919883
0.02919827
0.0291978
0.02919739
0.02919705
0.02919677
0.02919654
0.02919635
0.02919621
0.02919609
0.02919602
0.02919597
0.02919596
0.02919599
0.02919607
0.02919619
0.02919637
0.02919663
0.02919698
0.02919745
0.02919804
0.02919878
0.02919968
0.02920072
0.02920386
0.02920251
0.02920123
0.02920004
0.02919896
0.02919801
0.02919717
0.02919644
0.02919581
0.02919527
0.02919481
0.02919442
0.02919409
0.02919383
0.02919361
0.02919344
0.02919332
0.02919325
0.02919322
0.02919325
0.02919334
0.02919351
0.02919377
0.02919414
0.02919464
0.02919531
0.02919618
0.02919727
0.02919861
0.02920019
0.02920387
0.02920253
0.02920124
0.02920005
0.02919898
0.02919802
0.02919718
0.02919644
0.02919581
0.02919527
0.02919481
0.02919443
0.0291941
0.02919383
0.02919362
0.02919345
0.02919333
0.02919325
0.02919322
0.02919325
0.02919334
0.02919351
0.02919377
0.02919414
0.02919464
0.02919531
0.02919618
0.02919728
0.02919862
0.0292002
0.02920404
0.02920301
0.02920201
0.02920109
0.02920025
0.02919951
0.02919886
0.0291983
0.02919783
0.02919742
0.02919708
0.0291968
0.02919657
0.02919638
0.02919623
0.02919612
0.02919604
0.029196
0.02919599
0.02919602
0.02919609
0.02919622
0.0291964
0.02919666
0.02919702
0.02919748
0.02919807
0.02919882
0.02919972
0.02920078
0.02920409
0.02920305
0.02920206
0.02920113
0.02920029
0.02919954
0.02919889
0.02919833
0.02919785
0.02919744
0.0291971
0.02919681
0.02919658
0.02919639
0.02919624
0.02919613
0.02919605
0.02919601
0.029196
0.02919603
0.0291961
0.02919623
0.02919641
0.02919668
0.02919703
0.0291975
0.02919809
0.02919884
0.02919975
0.02920081
0.02920397
0.02920261
0.02920132
0.02920012
0.02919904
0.02919807
0.02919722
0.02919649
0.02919585
0.02919531
0.02919485
0.02919445
0.02919413
0.02919386
0.02919364
0.02919347
0.02919335
0.02919327
0.02919325
0.02919328
0.02919337
0.02919354
0.0291938
0.02919418
0.02919469
0.02919537
0.02919625
0.02919736
0.02919871
0.02920031
0.029204
0.02920265
0.02920135
0.02920015
0.02919907
0.0291981
0.02919726
0.02919652
0.02919588
0.02919534
0.02919487
0.02919448
0.02919415
0.02919388
0.02919366
0.02919349
0.02919337
0.02919329
0.02919326
0.02919328
0.02919337
0.02919354
0.02919379
0.02919416
0.02919467
0.02919534
0.02919623
0.02919734
0.02919872
0.02920035
0.02920419
0.02920316
0.02920216
0.02920123
0.02920039
0.02919964
0.02919899
0.02919843
0.02919795
0.02919754
0.0291972
0.02919691
0.02919668
0.02919649
0.02919634
0.02919623
0.02919615
0.02919611
0.0291961
0.02919613
0.0291962
0.02919633
0.02919651
0.02919677
0.02919712
0.02919759
0.02919819
0.02919894
0.02919985
0.02920091
0.02920455
0.02920388
0.02920322
0.02920257
0.02920194
0.02920133
0.02920077
0.02920026
0.02919979
0.02919938
0.02919902
0.02919871
0.02919845
0.02919823
0.02919806
0.02919793
0.02919785
0.0291978
0.0291978
0.02919784
0.02919793
0.02919807
0.02919826
0.02919851
0.02919882
0.0291992
0.02919964
0.02920013
0.02920067
0.02920124
0.02920434
0.02920333
0.02920233
0.02920135
0.02920042
0.02919954
0.02919873
0.02919798
0.02919731
0.02919672
0.0291962
0.02919575
0.02919536
0.02919504
0.02919479
0.02919459
0.02919445
0.02919438
0.02919438
0.02919444
0.02919459
0.02919483
0.02919518
0.02919563
0.02919622
0.02919695
0.02919782
0.02919884
0.0292
0.02920129
0.02920431
0.0292033
0.0292023
0.02920132
0.02920038
0.0291995
0.02919869
0.02919794
0.02919727
0.02919668
0.02919616
0.02919571
0.02919533
0.02919501
0.02919475
0.02919456
0.02919443
0.02919436
0.02919436
0.02919444
0.0291946
0.02919484
0.0291952
0.02919566
0.02919625
0.02919698
0.02919785
0.02919886
0.0292
0.02920125
0.02920446
0.02920379
0.02920312
0.02920247
0.02920183
0.02920123
0.02920066
0.02920015
0.02919968
0.02919927
0.02919891
0.0291986
0.02919834
0.02919812
0.02919795
0.02919782
0.02919773
0.02919769
0.02919769
0.02919773
0.02919782
0.02919797
0.02919817
0.02919843
0.02919875
0.02919914
0.02919959
0.0292001
0.02920066
0.02920126
0.02920441
0.02920374
0.02920308
0.02920243
0.02920179
0.02920119
0.02920063
0.02920012
0.02919966
0.02919924
0.02919889
0.02919858
0.02919832
0.0291981
0.02919793
0.0291978
0.02919772
0.02919767
0.02919767
0.02919772
0.02919781
0.02919795
0.02919815
0.02919841
0.02919873
0.02919912
0.02919957
0.02920009
0.02920065
0.02920125
0.02920422
0.02920322
0.02920222
0.02920125
0.02920032
0.02919944
0.02919863
0.02919789
0.02919723
0.02919664
0.02919612
0.02919567
0.02919529
0.02919497
0.02919472
0.02919453
0.0291944
0.02919433
0.02919433
0.0291944
0.02919455
0.02919479
0.02919514
0.0291956
0.02919618
0.0291969
0.02919776
0.02919877
0.0291999
0.02920116
0.02920421
0.0292032
0.0292022
0.02920123
0.0292003
0.02919943
0.02919862
0.02919788
0.02919721
0.02919662
0.02919611
0.02919566
0.02919528
0.02919496
0.02919471
0.02919452
0.02919439
0.02919432
0.02919432
0.02919439
0.02919455
0.02919479
0.02919514
0.02919559
0.02919618
0.0291969
0.02919776
0.02919876
0.02919989
0.02920114
0.02920437
0.0292037
0.02920304
0.02920238
0.02920175
0.02920115
0.02920059
0.02920008
0.02919962
0.02919921
0.02919885
0.02919854
0.02919828
0.02919806
0.02919789
0.02919777
0.02919768
0.02919764
0.02919764
0.02919768
0.02919777
0.02919791
0.02919811
0.02919837
0.02919869
0.02919907
0.02919952
0.02920003
0.02920059
0.02920118
0.02920434
0.02920368
0.02920302
0.02920236
0.02920173
0.02920114
0.02920058
0.02920007
0.02919961
0.0291992
0.02919884
0.02919853
0.02919827
0.02919806
0.02919789
0.02919776
0.02919768
0.02919763
0.02919763
0.02919768
0.02919777
0.02919791
0.02919811
0.02919837
0.02919869
0.02919907
0.02919952
0.02920002
0.02920058
0.02920117
0.02920416
0.02920316
0.02920217
0.0292012
0.02920027
0.0291994
0.02919859
0.02919785
0.02919719
0.02919661
0.02919609
0.02919565
0.02919527
0.02919495
0.0291947
0.02919451
0.02919438
0.02919431
0.02919431
0.02919438
0.02919454
0.02919478
0.02919512
0.02919558
0.02919616
0.02919688
0.02919774
0.02919873
0.02919986
0.02920111
0.02920416
0.02920315
0.02920216
0.02920119
0.02920026
0.02919939
0.02919859
0.02919785
0.02919719
0.0291966
0.02919609
0.02919564
0.02919526
0.02919495
0.0291947
0.0291945
0.02919437
0.02919431
0.02919431
0.02919438
0.02919453
0.02919478
0.02919512
0.02919558
0.02919616
0.02919688
0.02919773
0.02919873
0.02919986
0.0292011
0.02920432
0.02920366
0.029203
0.02920235
0.02920172
0.02920112
0.02920056
0.02920005
0.02919959
0.02919918
0.02919882
0.02919852
0.02919826
0.02919804
0.02919787
0.02919775
0.02919766
0.02919762
0.02919762
0.02919766
0.02919775
0.02919789
0.02919809
0.02919835
0.02919867
0.02919905
0.0291995
0.0292
0.02920056
0.02920115
0.02920431
0.02920365
0.02920299
0.02920234
0.02920171
0.02920111
0.02920056
0.02920005
0.02919959
0.02919918
0.02919882
0.02919851
0.02919825
0.02919804
0.02919787
0.02919775
0.02919766
0.02919762
0.02919762
0.02919766
0.02919775
0.02919789
0.02919809
0.02919835
0.02919867
0.02919905
0.02919949
0.0292
0.02920056
0.02920115
0.02920414
0.02920314
0.02920215
0.02920118
0.02920025
0.02919938
0.02919858
0.02919784
0.02919718
0.0291966
0.02919608
0.02919564
0.02919526
0.02919495
0.02919469
0.0291945
0.02919437
0.0291943
0.0291943
0.02919438
0.02919453
0.02919477
0.02919512
0.02919557
0.02919615
0.02919687
0.02919772
0.02919872
0.02919985
0.02920109
0.02920414
0.02920314
0.02920215
0.02920118
0.02920025
0.02919938
0.02919858
0.02919784
0.02919718
0.0291966
0.02919608
0.02919564
0.02919526
0.02919495
0.02919469
0.0291945
0.02919437
0.0291943
0.0291943
0.02919438
0.02919453
0.02919477
0.02919512
0.02919557
0.02919615
0.02919687
0.02919772
0.02919872
0.02919985
0.02920109
0.02920431
0.02920365
0.02920299
0.02920234
0.02920171
0.02920111
0.02920056
0.02920005
0.02919959
0.02919918
0.02919882
0.02919851
0.02919825
0.02919804
0.02919787
0.02919775
0.02919766
0.02919762
0.02919762
0.02919766
0.02919775
0.02919789
0.02919809
0.02919835
0.02919867
0.02919905
0.02919949
0.0292
0.02920056
0.02920115
0.02920432
0.02920366
0.029203
0.02920235
0.02920172
0.02920112
0.02920056
0.02920005
0.02919959
0.02919918
0.02919882
0.02919852
0.02919826
0.02919804
0.02919787
0.02919775
0.02919766
0.02919762
0.02919762
0.02919766
0.02919775
0.02919789
0.02919809
0.02919835
0.02919867
0.02919905
0.0291995
0.0292
0.02920056
0.02920115
0.02920416
0.02920315
0.02920216
0.02920119
0.02920026
0.02919939
0.02919859
0.02919785
0.02919719
0.0291966
0.02919609
0.02919564
0.02919526
0.02919495
0.0291947
0.0291945
0.02919437
0.02919431
0.02919431
0.02919438
0.02919453
0.02919478
0.02919512
0.02919558
0.02919616
0.02919688
0.02919773
0.02919873
0.02919986
0.0292011
0.02920416
0.02920316
0.02920217
0.0292012
0.02920027
0.0291994
0.02919859
0.02919785
0.02919719
0.02919661
0.02919609
0.02919565
0.02919527
0.02919495
0.0291947
0.02919451
0.02919438
0.02919431
0.02919431
0.02919438
0.02919454
0.02919478
0.02919512
0.02919558
0.02919616
0.02919688
0.02919774
0.02919873
0.02919986
0.02920111
0.02920434
0.02920368
0.02920302
0.02920236
0.02920173
0.02920114
0.02920058
0.02920007
0.02919961
0.0291992
0.02919884
0.02919853
0.02919827
0.02919806
0.02919789
0.02919776
0.02919768
0.02919763
0.02919763
0.02919768
0.02919777
0.02919791
0.02919811
0.02919837
0.02919868
0.02919907
0.02919952
0.02920002
0.02920058
0.02920117
0.02920437
0.0292037
0.02920304
0.02920238
0.02920175
0.02920115
0.02920059
0.02920008
0.02919962
0.02919921
0.02919885
0.02919854
0.02919828
0.02919806
0.02919789
0.02919777
0.02919768
0.02919764
0.02919764
0.02919768
0.02919777
0.02919791
0.02919811
0.02919837
0.02919869
0.02919907
0.02919952
0.02920003
0.02920059
0.02920118
0.02920421
0.0292032
0.0292022
0.02920123
0.0292003
0.02919943
0.02919862
0.02919788
0.02919721
0.02919662
0.02919611
0.02919566
0.02919528
0.02919496
0.02919471
0.02919452
0.02919439
0.02919432
0.02919432
0.02919439
0.02919455
0.02919479
0.02919514
0.02919559
0.02919618
0.0291969
0.02919776
0.02919876
0.02919989
0.02920114
0.02920422
0.02920322
0.02920222
0.02920125
0.02920032
0.02919944
0.02919863
0.02919789
0.02919723
0.02919663
0.02919612
0.02919567
0.02919529
0.02919497
0.02919472
0.02919453
0.02919439
0.02919433
0.02919433
0.0291944
0.02919455
0.02919479
0.02919514
0.0291956
0.02919618
0.0291969
0.02919776
0.02919877
0.0291999
0.02920116
0.02920441
0.02920374
0.02920308
0.02920243
0.02920179
0.02920119
0.02920063
0.02920012
0.02919966
0.02919924
0.02919889
0.02919858
0.02919832
0.0291981
0.02919793
0.0291978
0.02919772
0.02919767
0.02919767
0.02919772
0.02919781
0.02919795
0.02919815
0.02919841
0.02919873
0.02919912
0.02919957
0.02920009
0.02920065
0.02920125
0.02920446
0.02920379
0.02920312
0.02920247
0.02920183
0.02920123
0.02920066
0.02920015
0.02919968
0.02919927
0.02919891
0.0291986
0.02919834
0.02919812
0.02919795
0.02919782
0.02919773
0.02919769
0.02919769
0.02919773
0.02919782
0.02919797
0.02919817
0.02919843
0.02919875
0.02919914
0.02919959
0.0292001
0.02920066
0.02920126
0.02920431
0.0292033
0.0292023
0.02920132
0.02920038
0.0291995
0.02919869
0.02919794
0.02919727
0.02919668
0.02919616
0.02919571
0.02919533
0.02919501
0.02919475
0.02919456
0.02919443
0.02919436
0.02919436
0.02919444
0.0291946
0.02919484
0.0291952
0.02919566
0.02919625
0.02919698
0.02919785
0.02919886
0.0292
0.02920125
0.02920434
0.02920333
0.02920233
0.02920135
0.02920042
0.02919954
0.02919872
0.02919798
0.02919731
0.02919672
0.0291962
0.02919575
0.02919536
0.02919504
0.02919479
0.02919459
0.02919445
0.02919438
0.02919438
0.02919444
0.02919459
0.02919483
0.02919518
0.02919563
0.02919622
0.02919695
0.02919782
0.02919884
0.0292
0.02920129
0.02920455
0.02920388
0.02920322
0.02920257
0.02920194
0.02920133
0.02920077
0.02920026
0.02919979
0.02919938
0.02919902
0.02919871
0.02919845
0.02919823
0.02919806
0.02919793
0.02919785
0.0291978
0.0291978
0.02919784
0.02919793
0.02919807
0.02919826
0.02919851
0.02919882
0.0291992
0.02919964
0.02920013
0.02920067
0.02920124
0.0292048
0.0292043
0.02920381
0.02920331
0.02920282
0.02920234
0.02920188
0.02920144
0.02920103
0.02920066
0.02920033
0.02920003
0.02919978
0.02919956
0.02919939
0.02919926
0.02919916
0.02919911
0.02919909
0.02919912
0.02919918
0.02919928
0.02919942
0.0291996
0.0291998
0.02920003
0.02920029
0.02920055
0.02920082
0.02920108
0.02920461
0.02920376
0.02920291
0.02920207
0.02920126
0.02920047
0.02919973
0.02919903
0.02919838
0.0291978
0.02919728
0.02919682
0.02919642
0.02919609
0.02919583
0.02919563
0.0291955
0.02919544
0.02919546
0.02919556
0.02919575
0.02919603
0.0291964
0.02919688
0.02919745
0.02919813
0.02919891
0.02919978
0.02920073
0.02920174
0.02920458
0.02920373
0.02920288
0.02920204
0.02920122
0.02920043
0.02919969
0.02919899
0.02919834
0.02919776
0.02919724
0.02919678
0.02919638
0.02919606
0.02919579
0.0291956
0.02919548
0.02919543
0.02919546
0.02919556
0.02919576
0.02919604
0.02919642
0.0291969
0.02919749
0.02919817
0.02919894
0.02919981
0.02920074
0.02920174
0.02920473
0.02920422
0.02920372
0.02920322
0.02920272
0.02920224
0.02920177
0.02920134
0.02920093
0.02920055
0.02920022
0.02919992
0.02919967
0.02919945
0.02919928
0.02919915
0.02919906
0.02919901
0.029199
0.02919904
0.02919911
0.02919923
0.02919938
0.02919957
0.0291998
0.02920006
0.02920035
0.02920066
0.02920098
0.0292013
0.02920468
0.02920418
0.02920368
0.02920318
0.02920269
0.0292022
0.02920174
0.0292013
0.0292009
0.02920053
0.02920019
0.0291999
0.02919965
0.02919943
0.02919926
0.02919913
0.02919904
0.029199
0.02919899
0.02919902
0.0291991
0.02919921
0.02919937
0.02919956
0.0291998
0.02920006
0.02920035
0.02920067
0.02920099
0.02920132
0.0292045
0.02920365
0.02920281
0.02920197
0.02920116
0.02920037
0.02919963
0.02919893
0.02919829
0.02919771
0.02919719