/*--------------------------------*- C++ -*----------------------------------*\
| =========                 |                                                 |
| \\      /  F ield         | OpenFOAM: The Open Source CFD Toolbox           |
|  \\    /   O peration     | Version:  4.0                                   |
|   \\  /    A nd           | Web:      www.OpenFOAM.org                      |
|    \\/     M anipulation  |                                                 |
\*---------------------------------------------------------------------------*/
FoamFile
{
    version     2.0;
    format      ascii;
    class       surfaceScalarField;
    location    "60/air";
    object      phi;
}
// * * * * * * * * * * * * * * * * * * * * * * * * * * * * * * * * * * * * * //

dimensions      [1 0 -1 0 0 0 0];

internalField   nonuniform List<scalar> 
111448
(
1.94613e-08
3.152106e-10
3.073486e-09
3.409848e-08
6.851381e-10
7.527688e-09
4.511401e-08
9.232318e-10
1.091124e-08
5.331948e-08
1.093022e-09
1.35515e-08
5.933296e-08
1.216325e-09
1.56202e-08
6.365087e-08
1.302046e-09
1.723004e-08
6.66627e-08
1.357333e-09
1.848083e-08
6.867815e-08
1.39401e-09
1.944055e-08
6.994663e-08
1.416913e-09
2.016461e-08
7.067085e-08
1.428828e-09
2.069695e-08
7.101401e-08
1.43259e-09
2.107425e-08
7.110265e-08
1.430446e-09
2.133092e-08
7.102624e-08
1.423986e-09
2.150243e-08
7.085144e-08
1.414411e-09
2.161038e-08
7.06326e-08
1.40268e-09
2.166616e-08
7.041849e-08
1.389537e-09
2.167458e-08
7.024633e-08
1.375443e-09
2.164671e-08
7.014467e-08
1.360635e-09
2.159103e-08
7.013601e-08
1.345168e-09
2.151349e-08
7.023931e-08
1.32892e-09
2.141778e-08
7.047245e-08
1.311554e-09
2.130531e-08
7.085484e-08
1.292416e-09
2.117519e-08
7.14106e-08
1.270345e-09
2.102389e-08
7.217274e-08
1.243283e-09
2.084458e-08
7.318918e-08
1.207605e-09
2.062595e-08
7.453178e-08
1.157057e-09
2.035035e-08
7.631062e-08
1.080783e-09
1.999037e-08
7.870033e-08
9.580321e-10
1.950226e-08
8.19893e-08
7.475993e-10
1.881343e-08
4.19528e-10
1.782393e-08
8.659585e-08
1.990572e-08
-6.741834e-12
3.266234e-09
3.532298e-08
-1.490248e-11
8.132776e-09
4.720853e-08
-2.055477e-11
1.190824e-08
5.627957e-08
-2.507181e-11
1.489705e-08
6.311345e-08
-2.886241e-11
1.726131e-08
6.816807e-08
-3.223203e-11
1.912966e-08
7.181903e-08
-3.535672e-11
2.059172e-08
7.43791e-08
-3.835244e-11
2.17223e-08
7.609085e-08
-4.120998e-11
2.259637e-08
7.71622e-08
-4.399939e-11
2.325148e-08
7.77614e-08
-4.679763e-11
2.373019e-08
7.802326e-08
-4.966901e-11
2.406826e-08
7.805427e-08
-5.265628e-11
2.429563e-08
7.793751e-08
-5.578534e-11
2.443697e-08
7.773702e-08
-5.907632e-11
2.451225e-08
7.750174e-08
-6.255578e-11
2.453737e-08
7.726869e-08
-6.62629e-11
2.452476e-08
7.70658e-08
-7.025184e-11
2.448377e-08
7.691454e-08
-7.459374e-11
2.442103e-08
7.683225e-08
-7.93803e-11
2.434059e-08
7.683458e-08
-8.47284e-11
2.424395e-08
7.693799e-08
-9.079491e-11
2.41298e-08
7.716273e-08
-9.780515e-11
2.399342e-08
7.753649e-08
-1.060961e-10
2.382562e-08
7.80992e-08
-1.161778e-10
2.361107e-08
7.890943e-08
-1.287872e-10
2.332561e-08
8.005308e-08
-1.450492e-10
2.293218e-08
8.165451e-08
-1.67254e-10
2.237385e-08
8.391512e-08
-1.999767e-10
2.153697e-08
-2.484342e-10
2.031198e-08
8.712111e-08
1.989171e-08
-3.178078e-10
3.269351e-09
3.527886e-08
-6.932895e-10
8.141241e-09
4.712338e-08
-9.362853e-10
1.192121e-08
5.614457e-08
-1.109894e-09
1.491364e-08
6.292134e-08
-1.236268e-09
1.728063e-08
6.791247e-08
-1.324157e-09
1.91508e-08
7.149512e-08
-1.381781e-09
2.061378e-08
7.398285e-08
-1.420556e-09
2.174447e-08
7.561732e-08
-1.445442e-09
2.261976e-08
7.660706e-08
-1.459353e-09
2.327561e-08
7.712066e-08
-1.465172e-09
2.375477e-08
7.729283e-08
-1.465139e-09
2.40933e-08
7.722964e-08
-1.460821e-09
2.432136e-08
7.701345e-08
-1.453388e-09
2.44638e-08
7.670744e-08
-1.443752e-09
2.454068e-08
7.635962e-08
-1.432634e-09
2.45679e-08
7.600617e-08
-1.420536e-09
2.455772e-08
7.567432e-08
-1.407702e-09
2.45193e-08
7.538493e-08
-1.394171e-09
2.445896e-08
7.515494e-08
-1.379803e-09
2.438042e-08
7.499973e-08
-1.364271e-09
2.428475e-08
7.493577e-08
-1.347021e-09
2.417018e-08
7.49837e-08
-1.327157e-09
2.403143e-08
7.517225e-08
-1.303253e-09
2.38586e-08
7.554365e-08
-1.273109e-09
2.363553e-08
7.616128e-08
-1.23346e-09
2.333704e-08
7.712039e-08
-1.17909e-09
2.292493e-08
7.856201e-08
-1.100006e-09
2.234114e-08
8.071419e-08
-9.763731e-10
2.147422e-08
-8.079608e-10
2.021175e-08
8.391196e-08
1.945577e-08
3.07642e-09
3.407727e-08
7.535209e-09
4.506866e-08
1.092233e-08
5.324351e-08
1.356526e-08
5.922142e-08
1.563581e-08
6.350052e-08
1.724675e-08
6.64708e-08
1.849793e-08
6.844295e-08
1.94573e-08
6.966722e-08
2.018028e-08
7.034714e-08
2.071072e-08
7.064678e-08
2.10852e-08
7.069151e-08
2.134013e-08
7.057004e-08
2.151065e-08
7.034805e-08
2.16186e-08
7.007702e-08
2.167728e-08
6.980152e-08
2.169287e-08
6.956036e-08
2.167062e-08
6.938339e-08
2.161927e-08
6.929415e-08
2.154506e-08
6.93126e-08
2.145175e-08
6.945766e-08
2.134067e-08
6.974998e-08
2.121066e-08
7.021518e-08
2.105764e-08
7.088797e-08
2.087396e-08
7.18177e-08
2.064716e-08
7.307622e-08
2.035803e-08
7.476996e-08
1.997716e-08
7.706129e-08
1.945866e-08
8.020583e-08
1.872909e-08
1.768744e-08
8.456043e-08
1.945149e-08
3.15035e-10
3.083475e-09
3.406224e-08
6.872729e-10
7.551979e-09
4.503839e-08
9.280354e-10
1.094581e-08
5.319576e-08
1.099352e-09
1.359328e-08
5.915635e-08
1.222779e-09
1.566663e-08
6.341999e-08
1.307379e-09
1.727898e-08
6.637856e-08
1.360893e-09
1.853053e-08
6.834395e-08
1.395253e-09
1.948936e-08
6.956693e-08
1.415758e-09
2.021126e-08
7.025086e-08
1.425656e-09
2.074042e-08
7.055903e-08
1.42802e-09
2.111381e-08
7.061431e-08
1.425149e-09
2.136957e-08
7.050388e-08
1.418635e-09
2.15418e-08
7.029267e-08
1.409665e-09
2.165154e-08
7.003229e-08
1.399148e-09
2.171123e-08
6.976954e-08
1.387758e-09
2.172499e-08
6.95422e-08
1.375856e-09
2.170149e-08
6.93793e-08
1.3635e-09
2.16494e-08
6.930406e-08
1.350519e-09
2.157472e-08
6.933644e-08
1.33656e-09
2.148106e-08
6.94956e-08
1.321102e-09
2.136974e-08
6.980251e-08
1.303427e-09
2.123967e-08
7.028297e-08
1.282512e-09
2.108702e-08
7.097166e-08
1.256786e-09
2.090453e-08
7.191763e-08
1.223751e-09
2.068028e-08
7.31924e-08
1.17946e-09
2.039578e-08
7.490238e-08
1.117426e-09
2.002259e-08
7.721181e-08
1.024908e-09
1.951566e-08
8.038551e-08
8.754859e-10
1.880082e-08
6.61132e-10
1.777564e-08
8.479873e-08
1.988842e-08
-9.711325e-13
3.277591e-09
3.526745e-08
-2.093163e-12
8.160331e-09
4.710057e-08
-2.857204e-12
1.194777e-08
5.610769e-08
-3.47515e-12
1.494571e-08
6.286767e-08
-3.982238e-12
1.731679e-08
6.783946e-08
-4.468602e-12
1.919005e-08
7.140017e-08
-4.910033e-12
2.06551e-08
7.38636e-08
-5.335492e-12
2.178716e-08
7.547002e-08
-5.768381e-12
2.266511e-08
7.642853e-08
-6.219227e-12
2.332336e-08
7.690854e-08
-6.696732e-12
2.380471e-08
7.704548e-08
-7.209444e-12
2.414542e-08
7.694607e-08
-7.765776e-12
2.437581e-08
7.669327e-08
-8.373818e-12
2.452085e-08
7.635081e-08
-9.040871e-12
2.460065e-08
7.596732e-08
-9.772624e-12
2.463102e-08
7.557967e-08
-1.057225e-11
2.462407e-08
7.521598e-08
-1.143924e-11
2.458863e-08
7.489819e-08
-1.236803e-11
2.453068e-08
7.464443e-08
-1.334752e-11
2.445366e-08
7.447138e-08
-1.436159e-11
2.435852e-08
7.439669e-08
-1.539098e-11
2.424351e-08
7.444207e-08
-1.641893e-11
2.410355e-08
7.46372e-08
-1.7445e-11
2.39291e-08
7.502513e-08
-1.850647e-11
2.370433e-08
7.566982e-08
-1.969022e-11
2.340446e-08
7.666686e-08
-2.11441e-11
2.299153e-08
7.815728e-08
-2.319729e-11
2.240768e-08
8.037001e-08
-2.654642e-11
2.15393e-08
-3.207835e-11
2.027579e-08
8.363743e-08
1.988659e-08
-3.154276e-10
3.277863e-09
3.526201e-08
-6.885771e-10
8.161067e-09
4.709043e-08
-9.301881e-10
1.194891e-08
5.609195e-08
-1.102195e-09
1.49472e-08
6.284558e-08
-1.226189e-09
1.731857e-08
6.78103e-08
-1.311261e-09
1.919208e-08
7.136338e-08
-1.365303e-09
2.065731e-08
7.381871e-08
-1.400156e-09
2.178949e-08
7.541695e-08
-1.421142e-09
2.266713e-08
7.636725e-08
-1.431525e-09
2.332501e-08
7.683895e-08
-1.434389e-09
2.3806e-08
7.69674e-08
-1.432037e-09
2.414638e-08
7.68592e-08
-1.426068e-09
2.43765e-08
7.659717e-08
-1.41767e-09
2.452132e-08
7.624493e-08
-1.407755e-09
2.460096e-08
7.585094e-08
-1.396999e-09
2.463122e-08
7.545194e-08
-1.385763e-09
2.462419e-08
7.507588e-08
-1.374099e-09
2.458871e-08
7.474458e-08
-1.361818e-09
2.453075e-08
7.447607e-08
-1.348544e-09
2.44537e-08
7.428693e-08
-1.333721e-09
2.43585e-08
7.419479e-08
-1.316597e-09
2.424334e-08
7.422142e-08
-1.29612e-09
2.410308e-08
7.439663e-08
-1.270716e-09
2.392806e-08
7.476378e-08
-1.237994e-09
2.370234e-08
7.538747e-08
-1.194354e-09
2.340097e-08
7.636455e-08
-1.134068e-09
2.298585e-08
7.783817e-08
-1.045787e-09
2.239896e-08
8.004016e-08
-9.055901e-10
2.152706e-08
-7.086211e-10
2.02591e-08
8.33076e-08
1.945078e-08
3.083793e-09
3.405936e-08
7.552839e-09
4.503205e-08
1.094712e-08
5.318491e-08
1.359495e-08
5.914016e-08
1.566856e-08
6.33978e-08
1.72811e-08
6.634971e-08
1.853278e-08
6.830786e-08
1.94917e-08
6.952308e-08
2.021364e-08
7.019873e-08
2.074282e-08
7.049818e-08
2.111616e-08
7.054426e-08
2.137188e-08
7.042412e-08
2.154407e-08
7.020265e-08
2.165381e-08
6.993131e-08
2.171359e-08
6.965663e-08
2.172768e-08
6.941643e-08
2.170444e-08
6.923973e-08
2.16526e-08
6.914972e-08
2.157819e-08
6.916636e-08
2.148482e-08
6.930887e-08
2.137376e-08
6.959842e-08
2.124386e-08
7.006115e-08
2.109115e-08
7.073228e-08
2.090816e-08
7.166158e-08
2.06827e-08
7.292122e-08
2.0396e-08
7.461783e-08
2.001932e-08
7.691464e-08
1.950741e-08
8.007309e-08
1.878596e-08
1.775239e-08
8.446208e-08
1.945119e-08
3.142485e-10
3.084557e-09
3.4059e-08
6.878405e-10
7.554358e-09
4.502951e-08
9.304824e-10
1.094901e-08
5.317953e-08
1.102955e-09
1.359703e-08
5.913202e-08
1.226778e-09
1.567073e-08
6.338743e-08
1.311287e-09
1.72833e-08
6.633789e-08
1.364565e-09
1.853497e-08
6.829549e-08
1.398561e-09
1.949384e-08
6.951109e-08
1.418677e-09
2.021572e-08
7.018795e-08
1.428259e-09
2.074488e-08
7.048915e-08
1.430422e-09
2.111838e-08
7.053733e-08
1.427457e-09
2.137436e-08
7.041956e-08
1.420933e-09
2.154684e-08
7.020076e-08
1.412013e-09
2.165678e-08
6.993275e-08
1.401588e-09
2.171643e-08
6.966278e-08
1.390319e-09
2.172965e-08
6.942828e-08
1.378546e-09
2.170596e-08
6.925809e-08
1.366316e-09
2.165387e-08
6.917537e-08
1.353443e-09
2.157928e-08
6.920005e-08
1.339562e-09
2.148576e-08
6.935133e-08
1.324137e-09
2.137458e-08
6.965025e-08
1.306444e-09
2.124463e-08
7.012279e-08
1.285456e-09
2.109201e-08
7.080379e-08
1.259626e-09
2.090937e-08
7.174255e-08
1.226551e-09
2.068469e-08
7.301072e-08
1.182521e-09
2.039931e-08
7.471461e-08
1.121522e-09
2.002458e-08
7.701764e-08
1.031704e-09
1.951527e-08
8.018216e-08
8.883042e-10
1.879718e-08
6.849258e-10
1.776782e-08
8.457941e-08
1.988529e-08
-2.318073e-13
3.279191e-09
3.52607e-08
-4.825333e-13
8.162914e-09
4.70912e-08
-6.631286e-13
1.195065e-08
5.609602e-08
-8.417913e-13
1.494898e-08
6.285319e-08
-1.020678e-12
1.732062e-08
6.782109e-08
-1.237876e-12
1.919463e-08
7.137674e-08
-1.460046e-12
2.066037e-08
7.383389e-08
-1.691277e-12
2.17931e-08
7.543414e-08
-1.933225e-12
2.267036e-08
7.638661e-08
-2.181477e-12
2.332797e-08
7.686071e-08
-2.429514e-12
2.380875e-08
7.699185e-08
-2.669035e-12
2.414898e-08
7.688669e-08
-2.890122e-12
2.437899e-08
7.662805e-08
-3.081824e-12
2.452373e-08
7.627955e-08
-3.232898e-12
2.460331e-08
7.588967e-08
-3.333226e-12
2.463354e-08
7.54951e-08
-3.375308e-12
2.462649e-08
7.512378e-08
-3.354824e-12
2.459099e-08
7.479747e-08
-3.270785e-12
2.453303e-08
7.453414e-08
-3.126266e-12
2.445602e-08
7.435031e-08
-2.928463e-12
2.43609e-08
7.426353e-08
-2.688532e-12
2.424591e-08
7.429546e-08
-2.422651e-12
2.410594e-08
7.447586e-08
-2.156493e-12
2.393138e-08
7.484801e-08
-1.933584e-12
2.370634e-08
7.547644e-08
-1.824928e-12
2.340591e-08
7.645782e-08
-1.921217e-12
2.299207e-08
7.793494e-08
-2.268891e-12
2.240685e-08
8.013912e-08
-2.809561e-12
2.153693e-08
-3.466509e-12
2.027149e-08
8.340602e-08
1.988481e-08
-3.143712e-10
3.279328e-09
3.525918e-08
-6.880981e-10
8.163244e-09
4.708824e-08
-9.308498e-10
1.195113e-08
5.609126e-08
-1.103448e-09
1.494959e-08
6.284629e-08
-1.227404e-09
1.732135e-08
6.781168e-08
-1.312078e-09
1.919545e-08
7.136444e-08
-1.365509e-09
2.066129e-08
7.381832e-08
-1.399659e-09
2.179409e-08
7.5415e-08
-1.419938e-09
2.267132e-08
7.636362e-08
-1.429689e-09
2.332889e-08
7.68336e-08
-1.432028e-09
2.380962e-08
7.696036e-08
-1.429241e-09
2.414981e-08
7.685056e-08
-1.422893e-09
2.43798e-08
7.658705e-08
-1.41414e-09
2.452458e-08
7.623345e-08
-1.403868e-09
2.460424e-08
7.583825e-08
-1.392736e-09
2.46346e-08
7.543822e-08
-1.381082e-09
2.462774e-08
7.506133e-08
-1.368952e-09
2.459248e-08
7.472943e-08
-1.356156e-09
2.453479e-08
7.446059e-08
-1.342326e-09
2.445804e-08
7.427144e-08
-1.326923e-09
2.436315e-08
7.417966e-08
-1.309221e-09
2.424831e-08
7.420708e-08
-1.288201e-09
2.410836e-08
7.438359e-08
-1.262332e-09
2.393366e-08
7.47526e-08
-1.229242e-09
2.37083e-08
7.537873e-08
-1.185273e-09
2.340732e-08
7.635865e-08
-1.124515e-09
2.299268e-08
7.783525e-08
-1.035273e-09
2.24064e-08
8.004019e-08
-8.930263e-10
2.153528e-08
-6.921381e-10
2.026838e-08
8.331048e-08
1.9451e-08
3.084631e-09
3.40584e-08
7.554499e-09
4.502836e-08
1.094919e-08
5.317766e-08
1.359725e-08
5.912926e-08
1.567099e-08
6.338359e-08
1.728359e-08
6.63328e-08
1.853528e-08
6.828899e-08
1.949416e-08
6.950301e-08
2.021604e-08
7.017812e-08
2.074519e-08
7.047748e-08
2.111862e-08
7.052371e-08
2.137452e-08
7.040389e-08
2.154693e-08
7.018291e-08
2.165683e-08
6.991248e-08
2.171657e-08
6.963963e-08
2.173011e-08
6.940193e-08
2.170662e-08
6.922832e-08
2.165466e-08
6.914195e-08
2.158021e-08
6.916282e-08
2.148681e-08
6.931015e-08
2.137574e-08
6.960509e-08
2.124585e-08
7.007367e-08
2.109321e-08
7.075089e-08
2.091045e-08
7.168616e-08
2.068549e-08
7.295124e-08
2.039965e-08
7.465245e-08
2.002428e-08
7.695303e-08
1.951415e-08
8.011506e-08
1.879494e-08
1.776403e-08
8.45089e-08
1.94508e-08
3.14511e-10
3.084688e-09
3.405803e-08
6.8812e-10
7.554651e-09
4.502792e-08
9.306751e-10
1.094943e-08
5.31772e-08
1.103142e-09
1.359758e-08
5.912882e-08
1.227002e-09
1.567138e-08
6.338321e-08
1.311571e-09
1.728403e-08
6.633253e-08
1.364896e-09
1.853579e-08
6.828885e-08
1.398933e-09
1.949474e-08
6.950301e-08
1.419099e-09
2.021674e-08
7.017824e-08
1.428742e-09
2.074603e-08
7.047767e-08
1.43098e-09
2.111959e-08
7.052407e-08
1.428101e-09
2.13755e-08
7.040453e-08
1.421662e-09
2.154787e-08
7.018397e-08
1.412807e-09
2.165776e-08
6.991402e-08
1.40241e-09
2.171753e-08
6.964174e-08
1.391122e-09
2.173116e-08
6.940481e-08
1.379293e-09
2.170764e-08
6.923217e-08
1.366987e-09
2.165565e-08
6.914696e-08
1.35405e-09
2.158116e-08
6.916909e-08
1.340142e-09
2.148773e-08
6.93177e-08
1.324744e-09
2.137665e-08
6.961382e-08
1.307127e-09
2.124675e-08
7.008343e-08
1.286255e-09
2.109413e-08
7.076146e-08
1.260576e-09
2.09114e-08
7.169728e-08
1.227699e-09
2.068648e-08
7.296262e-08
1.183956e-09
2.040071e-08
7.466376e-08
1.123425e-09
2.002543e-08
7.696395e-08
1.034404e-09
1.951541e-08
8.012531e-08
8.92374e-10
1.879626e-08
6.918269e-10
1.776531e-08
8.451817e-08
1.988516e-08
8.57002e-16
3.279352e-09
3.525986e-08
2.296209e-15
8.163411e-09
4.708907e-08
3.291098e-15
1.195146e-08
5.609214e-08
3.811379e-15
1.495007e-08
6.284716e-08
4.073443e-15
1.732197e-08
6.781251e-08
3.886978e-15
1.919622e-08
7.136519e-08
3.66088e-15
2.066222e-08
7.381893e-08
3.476251e-15
2.179519e-08
7.541529e-08
3.41902e-15
2.267273e-08
7.636341e-08
3.516258e-15
2.333063e-08
7.683262e-08
3.783551e-15
2.381176e-08
7.695832e-08
4.235904e-15
2.41524e-08
7.684713e-08
4.881338e-15
2.438284e-08
7.658191e-08
5.720825e-15
2.452803e-08
7.622628e-08
6.746879e-15
2.460803e-08
7.582879e-08
7.947553e-15
2.463861e-08
7.54262e-08
9.302031e-15
2.463186e-08
7.504655e-08
1.078684e-14
2.459663e-08
7.471166e-08
1.236946e-14
2.453892e-08
7.443963e-08
1.401871e-14
2.446216e-08
7.424709e-08
1.570542e-14
2.436727e-08
7.415178e-08
1.741336e-14
2.425243e-08
7.417556e-08
1.915173e-14
2.411246e-08
7.434843e-08
2.09692e-14
2.393768e-08
7.471395e-08
2.297559e-14
2.371216e-08
7.533697e-08
2.53605e-14
2.341091e-08
7.631448e-08
2.841677e-14
2.299588e-08
7.77898e-08
3.256495e-14
2.240906e-08
7.999487e-08
3.843329e-14
2.153726e-08
4.690648e-14
2.026936e-08
8.326728e-08
1.988516e-08
-3.145099e-10
3.279352e-09
3.525987e-08
-6.881173e-10
8.16341e-09
4.708908e-08
-9.306715e-10
1.195146e-08
5.609215e-08
-1.103138e-09
1.495007e-08
6.284718e-08
-1.226998e-09
1.732197e-08
6.781254e-08
-1.311568e-09
1.919622e-08
7.136522e-08
-1.364893e-09
2.066221e-08
7.381897e-08
-1.398932e-09
2.179519e-08
7.541535e-08
-1.419098e-09
2.267272e-08
7.636347e-08
-1.428741e-09
2.333062e-08
7.68327e-08
-1.43098e-09
2.381176e-08
7.695841e-08
-1.4281e-09
2.415239e-08
7.684724e-08
-1.421662e-09
2.438283e-08
7.658203e-08
-1.412806e-09
2.452802e-08
7.622643e-08
-1.402408e-09
2.460802e-08
7.582895e-08
-1.39112e-09
2.46386e-08
7.542639e-08
-1.379289e-09
2.463186e-08
7.504676e-08
-1.366982e-09
2.459662e-08
7.47119e-08
-1.354043e-09
2.453891e-08
7.44399e-08
-1.340133e-09
2.446215e-08
7.42474e-08
-1.324734e-09
2.436726e-08
7.415211e-08
-1.307115e-09
2.425242e-08
7.417592e-08
-1.286241e-09
2.411245e-08
7.434883e-08
-1.26056e-09
2.393768e-08
7.471438e-08
-1.22768e-09
2.371215e-08
7.533743e-08
-1.183934e-09
2.341091e-08
7.631497e-08
-1.123398e-09
2.299588e-08
7.779031e-08
-1.034368e-09
2.240907e-08
7.999539e-08
-8.92323e-10
2.153728e-08
-6.917476e-10
2.026938e-08
8.32678e-08
1.94508e-08
3.084688e-09
3.405803e-08
7.554651e-09
4.502793e-08
1.094943e-08
5.317722e-08
1.359757e-08
5.912884e-08
1.567138e-08
6.338324e-08
1.728403e-08
6.633256e-08
1.853578e-08
6.828889e-08
1.949474e-08
6.950305e-08
2.021674e-08
7.017828e-08
2.074603e-08
7.047772e-08
2.111958e-08
7.052412e-08
2.13755e-08
7.040458e-08
2.154787e-08
7.018402e-08
2.165776e-08
6.991408e-08
2.171753e-08
6.964181e-08
2.173115e-08
6.940489e-08
2.170763e-08
6.923227e-08
2.165564e-08
6.914709e-08
2.158114e-08
6.916924e-08
2.148772e-08
6.931788e-08
2.137663e-08
6.961403e-08
2.124673e-08
7.008368e-08
2.109411e-08
7.076174e-08
2.091138e-08
7.169759e-08
2.068647e-08
7.296296e-08
2.04007e-08
7.466413e-08
2.002543e-08
7.696436e-08
1.95154e-08
8.012578e-08
1.879626e-08
1.776531e-08
8.451872e-08
1.9451e-08
3.143663e-10
3.08463e-09
3.405842e-08
6.880923e-10
7.554494e-09
4.502839e-08
9.308448e-10
1.094918e-08
5.317771e-08
1.103442e-09
1.359724e-08
5.912933e-08
1.227398e-09
1.567098e-08
6.338368e-08
1.312071e-09
1.728358e-08
6.633291e-08
1.365501e-09
1.853527e-08
6.828912e-08
1.399652e-09
1.949414e-08
6.950316e-08
1.419933e-09
2.021603e-08
7.01783e-08
1.429687e-09
2.074518e-08
7.047766e-08
1.43203e-09
2.111861e-08
7.052389e-08
1.429248e-09
2.137452e-08
7.040405e-08
1.422906e-09
2.154693e-08
7.018305e-08
1.41416e-09
2.165684e-08
6.991259e-08
1.403894e-09
2.171657e-08
6.963972e-08
1.392769e-09
2.17301e-08
6.940201e-08
1.381123e-09
2.170659e-08
6.922837e-08
1.368999e-09
2.165464e-08
6.914198e-08
1.35621e-09
2.158018e-08
6.916281e-08
1.342386e-09
2.148678e-08
6.931011e-08
1.326989e-09
2.137571e-08
6.960499e-08
1.309293e-09
2.124582e-08
7.007352e-08
1.288277e-09
2.109319e-08
7.075067e-08
1.262413e-09
2.091043e-08
7.168588e-08
1.229327e-09
2.068547e-08
7.295089e-08
1.185363e-09
2.039963e-08
7.465202e-08
1.124612e-09
2.002426e-08
7.695251e-08
1.03538e-09
1.951413e-08
8.011446e-08
8.93147e-10
1.87949e-08
6.922916e-10
1.776398e-08
8.450819e-08
1.988481e-08
2.28407e-13
3.279326e-09
3.525919e-08
4.759004e-13
8.163237e-09
4.708826e-08
6.536771e-13
1.195112e-08
5.60913e-08
8.292293e-13
1.494958e-08
6.284636e-08
1.006048e-12
1.732133e-08
6.781178e-08
1.221714e-12
1.919543e-08
7.136457e-08
1.444998e-12
2.066127e-08
7.381846e-08
1.680449e-12
2.179408e-08
7.541516e-08
1.930303e-12
2.26713e-08
7.63638e-08
2.189944e-12
2.332886e-08
7.683379e-08
2.452417e-12
2.380959e-08
7.696057e-08
2.708812e-12
2.414977e-08
7.685077e-08
2.948509e-12
2.437976e-08
7.658724e-08
3.159807e-12
2.452452e-08
7.623362e-08
3.330703e-12
2.460418e-08
7.58384e-08
3.450301e-12
2.463454e-08
7.543834e-08
3.510361e-12
2.462768e-08
7.506141e-08
3.505929e-12
2.459242e-08
7.472946e-08
3.43555e-12
2.453473e-08
7.446056e-08
3.301989e-12
2.445798e-08
7.427134e-08
3.112297e-12
2.436309e-08
7.41795e-08
2.877667e-12
2.424826e-08
7.420685e-08
2.614548e-12
2.410831e-08
7.43833e-08
2.349175e-12
2.393362e-08
7.475225e-08
2.126037e-12
2.370825e-08
7.537832e-08
2.017538e-12
2.340727e-08
7.635819e-08
2.116082e-12
2.299263e-08
7.783475e-08
2.469403e-12
2.240635e-08
8.003965e-08
3.01947e-12
2.153522e-08
3.698375e-12
2.026831e-08
8.330994e-08
1.988529e-08
-3.142514e-10
3.279192e-09
3.526069e-08
-6.878448e-10
8.162915e-09
4.709119e-08
-9.304864e-10
1.195065e-08
5.609599e-08
-1.102958e-09
1.494898e-08
6.285316e-08
-1.226779e-09
1.732062e-08
6.782104e-08
-1.311286e-09
1.919462e-08
7.137667e-08
-1.364556e-09
2.066037e-08
7.38338e-08
-1.39854e-09
2.179309e-08
7.543404e-08
-1.418642e-09
2.267034e-08
7.638651e-08
-1.428209e-09
2.332792e-08
7.686063e-08
-1.430354e-09
2.380869e-08
7.69918e-08
-1.42737e-09
2.41489e-08
7.688668e-08
-1.420826e-09
2.43789e-08
7.66281e-08
-1.411885e-09
2.452362e-08
7.627968e-08
-1.401438e-09
2.460319e-08
7.588987e-08
-1.390147e-09
2.46334e-08
7.549539e-08
-1.378355e-09
2.462634e-08
7.512416e-08
-1.366108e-09
2.459085e-08
7.479793e-08
-1.353223e-09
2.453289e-08
7.453469e-08
-1.339334e-09
2.445588e-08
7.435093e-08
-1.323907e-09
2.436078e-08
7.426422e-08
-1.306216e-09
2.424581e-08
7.429622e-08
-1.285235e-09
2.410585e-08
7.447667e-08
-1.259416e-09
2.393131e-08
7.484886e-08
-1.226354e-09
2.370629e-08
7.547733e-08
-1.18234e-09
2.340589e-08
7.645874e-08
-1.121354e-09
2.299206e-08
7.793589e-08
-1.03154e-09
2.240685e-08
8.014009e-08
-8.881247e-10
2.153695e-08
-6.847102e-10
2.027151e-08
8.340699e-08
1.945119e-08
3.084563e-09
3.405896e-08
7.554376e-09
4.502944e-08
1.094904e-08
5.317941e-08
1.359707e-08
5.913184e-08
1.567079e-08
6.338719e-08
1.728337e-08
6.63376e-08
1.853504e-08
6.829517e-08
1.949389e-08
6.951077e-08
2.021575e-08
7.018767e-08
2.074489e-08
7.048897e-08
2.111835e-08
7.053729e-08
2.137431e-08
7.041967e-08
2.154679e-08
7.020107e-08
2.165672e-08
6.993326e-08
2.171637e-08
6.966346e-08
2.172965e-08
6.94291e-08
2.1706e-08
6.925907e-08
2.165392e-08
6.917651e-08
2.157934e-08
6.920136e-08
2.148582e-08
6.935282e-08
2.137463e-08
6.965194e-08
2.124467e-08
7.012466e-08
2.109204e-08
7.080585e-08
2.09094e-08
7.174478e-08
2.068471e-08
7.30131e-08
2.039934e-08
7.471714e-08
2.002461e-08
7.702029e-08
1.951531e-08
8.018493e-08
1.879723e-08
1.77679e-08
8.458232e-08
1.945046e-08
3.156112e-10
3.083933e-09
3.405847e-08
6.888981e-10
7.553092e-09
4.503052e-08
9.305451e-10
1.09474e-08
5.318274e-08
1.102562e-09
1.359522e-08
5.913738e-08
1.22656e-09
1.566881e-08
6.33944e-08
1.311656e-09
1.728132e-08
6.63457e-08
1.365722e-09
1.853297e-08
6.830326e-08
1.400601e-09
1.949184e-08
6.951791e-08
1.421612e-09
2.021373e-08
7.019301e-08
1.432019e-09
2.074288e-08
7.049177e-08
1.4349e-09
2.111634e-08
7.053697e-08
1.432559e-09
2.137224e-08
7.041577e-08
1.42659e-09
2.154461e-08
7.019315e-08
1.41818e-09
2.165444e-08
6.992082e-08
1.408238e-09
2.171409e-08
6.964569e-08
1.397435e-09
2.17277e-08
6.940527e-08
1.386121e-09
2.170429e-08
6.922855e-08
1.37434e-09
2.165239e-08
6.913872e-08
1.361901e-09
2.157793e-08
6.915581e-08
1.348427e-09
2.148448e-08
6.929913e-08
1.333371e-09
2.137332e-08
6.958983e-08
1.315994e-09
2.12433e-08
7.005404e-08
1.295269e-09
2.109052e-08
7.072683e-08
1.269661e-09
2.090755e-08
7.165772e-08
1.236812e-09
2.06823e-08
7.291864e-08
1.193127e-09
2.039595e-08
7.461621e-08
1.132814e-09
2.001962e-08
7.691376e-08
1.044588e-09
1.950786e-08
8.007213e-08
9.050561e-10
1.878658e-08
7.093076e-10
1.775343e-08
8.445939e-08
1.988681e-08
8.971892e-13
3.277907e-09
3.526238e-08
2.127614e-12
8.161197e-09
4.709079e-08
3.032698e-12
1.19491e-08
5.609221e-08
3.728812e-12
1.494741e-08
6.28457e-08
4.283986e-12
1.731879e-08
6.781025e-08
4.811467e-12
1.91923e-08
7.136312e-08
5.294115e-12
2.065755e-08
7.381818e-08
5.756003e-12
2.178979e-08
7.541622e-08
6.217312e-12
2.266736e-08
7.636634e-08
6.687416e-12
2.332521e-08
7.683788e-08
7.172849e-12
2.380619e-08
7.696618e-08
7.679718e-12
2.414657e-08
7.685786e-08
8.214148e-12
2.43767e-08
7.659572e-08
8.782269e-12
2.452154e-08
7.624337e-08
9.39027e-12
2.46012e-08
7.584927e-08
1.004384e-11
2.46315e-08
7.545011e-08
1.074698e-11
2.462453e-08
7.507383e-08
1.150159e-11
2.458912e-08
7.474216e-08
1.230774e-11
2.453126e-08
7.44731e-08
1.316319e-11
2.445433e-08
7.428313e-08
1.40636e-11
2.435927e-08
7.418985e-08
1.500361e-11
2.424427e-08
7.421498e-08
1.597741e-11
2.410416e-08
7.438837e-08
1.697923e-11
2.392929e-08
7.475348e-08
1.800526e-11
2.37037e-08
7.537515e-08
1.905191e-11
2.340241e-08
7.635051e-08
2.015832e-11
2.29873e-08
7.782308e-08
2.166531e-11
2.240035e-08
8.00253e-08
2.452422e-11
2.152832e-08
2.978701e-11
2.026006e-08
8.329476e-08
1.988843e-08
-3.150943e-10
3.277563e-09
3.52676e-08
-6.872992e-10
8.160254e-09
4.710098e-08
-9.280004e-10
1.194765e-08
5.610844e-08
-1.099284e-09
1.494555e-08
6.286882e-08
-1.222696e-09
1.73166e-08
6.784104e-08
-1.307272e-09
1.918987e-08
7.140218e-08
-1.36077e-09
2.065492e-08
7.386603e-08
-1.395112e-09
2.178702e-08
7.547293e-08
-1.4156e-09
2.266491e-08
7.643199e-08
-1.425482e-09
2.332312e-08
7.691255e-08
-1.427831e-09
2.380444e-08
7.705005e-08
-1.424944e-09
2.414512e-08
7.695118e-08
-1.418414e-09
2.43755e-08
7.669886e-08
-1.409428e-09
2.452052e-08
7.635685e-08
-1.398894e-09
2.46003e-08
7.597376e-08
-1.387488e-09
2.463062e-08
7.558647e-08
-1.37557e-09
2.46236e-08
7.522311e-08
-1.363199e-09
2.458807e-08
7.490562e-08
-1.350204e-09
2.453e-08
7.465217e-08
-1.336236e-09
2.445284e-08
7.447945e-08
-1.320775e-09
2.435756e-08
7.440515e-08
-1.303108e-09
2.424241e-08
7.4451e-08
-1.282216e-09
2.410235e-08
7.464668e-08
-1.256532e-09
2.392783e-08
7.503519e-08
-1.223566e-09
2.370306e-08
7.568039e-08
-1.179375e-09
2.340323e-08
7.667761e-08
-1.117476e-09
2.299041e-08
7.816764e-08
-1.025112e-09
2.240675e-08
8.037937e-08
-8.758368e-10
2.153863e-08
-6.61619e-10
2.027545e-08
8.364533e-08
1.945142e-08
3.083483e-09
3.406215e-08
7.551973e-09
4.503836e-08
1.094579e-08
5.319584e-08
1.359324e-08
5.915657e-08
1.566658e-08
6.342038e-08
1.727892e-08
6.637913e-08
1.853048e-08
6.83447e-08
1.948932e-08
6.956787e-08
2.021123e-08
7.025197e-08
2.074042e-08
7.05603e-08
2.111383e-08
7.061575e-08
2.136961e-08
7.050549e-08
2.154185e-08
7.029445e-08
2.16516e-08
7.003426e-08
2.17113e-08
6.977176e-08
2.172501e-08
6.954472e-08
2.170147e-08
6.938218e-08
2.164934e-08
6.930735e-08
2.157462e-08
6.934019e-08
2.148093e-08
6.949985e-08
2.136957e-08
6.980728e-08
2.123946e-08
7.028828e-08
2.108678e-08
7.097748e-08
2.090426e-08
7.192393e-08
2.067999e-08
7.319907e-08
2.039548e-08
7.49093e-08
2.002229e-08
7.72188e-08
1.951539e-08
8.039238e-08
1.880058e-08
1.777547e-08
8.480529e-08
1.945577e-08
3.178077e-10
3.076425e-09
3.407726e-08
6.932902e-10
7.53522e-09
4.506862e-08
9.362874e-10
1.092235e-08
5.324345e-08
1.109898e-09
1.356528e-08
5.922134e-08
1.236273e-09
1.563583e-08
6.35004e-08
1.324165e-09
1.724677e-08
6.647066e-08
1.381791e-09
1.849795e-08
6.844278e-08
1.420568e-09
1.945731e-08
6.966704e-08
1.445457e-09
2.018028e-08
7.034695e-08
1.45937e-09
2.071072e-08
7.064658e-08
1.465192e-09
2.108518e-08
7.069131e-08
1.465161e-09
2.134011e-08
7.056983e-08
1.460846e-09
2.151063e-08
7.034783e-08
1.453416e-09
2.161858e-08
7.007678e-08
1.443783e-09
2.167727e-08
6.980126e-08
1.432668e-09
2.169286e-08
6.956006e-08
1.420573e-09
2.167062e-08
6.938304e-08
1.407742e-09
2.161928e-08
6.929376e-08
1.394215e-09
2.154507e-08
6.931214e-08
1.37985e-09
2.145176e-08
6.945713e-08
1.364321e-09
2.134069e-08
6.974938e-08
1.347074e-09
2.121068e-08
7.02145e-08
1.327213e-09
2.105766e-08
7.088721e-08
1.303311e-09
2.087399e-08
7.181686e-08
1.273168e-09
2.064718e-08
7.30753e-08
1.233518e-09
2.035804e-08
7.476898e-08
1.179148e-09
1.997717e-08
7.706026e-08
1.100064e-09
1.945866e-08
8.020475e-08
9.764364e-10
1.872907e-08
8.080348e-10
1.768741e-08
8.45593e-08
1.989171e-08
6.741392e-12
3.269355e-09
3.527885e-08
1.490029e-11
8.14125e-09
4.712337e-08
2.055133e-11
1.192122e-08
5.614454e-08
2.506817e-11
1.491365e-08
6.292132e-08
2.885913e-11
1.728064e-08
6.791245e-08
3.222935e-11
1.915081e-08
7.149511e-08
3.535471e-11
2.061378e-08
7.398285e-08
3.835115e-11
2.174447e-08
7.561734e-08
4.120951e-11
2.261975e-08
7.66071e-08
4.399979e-11
2.327561e-08
7.712071e-08
4.679893e-11
2.375478e-08
7.72929e-08
4.967124e-11
2.409331e-08
7.722971e-08
5.265952e-11
2.432137e-08
7.701352e-08
5.578978e-11
2.446381e-08
7.670752e-08
5.908231e-11
2.45407e-08
7.63597e-08
6.256381e-11
2.456792e-08
7.600625e-08
6.627359e-11
2.455776e-08
7.567438e-08
7.026591e-11
2.451934e-08
7.538498e-08
7.461192e-11
2.445901e-08
7.515497e-08
7.940322e-11
2.438046e-08
7.499973e-08
8.475653e-11
2.42848e-08
7.493576e-08
9.082843e-11
2.417023e-08
7.498366e-08
9.784393e-11
2.403146e-08
7.51722e-08
1.061397e-10
2.385864e-08
7.554358e-08
1.162256e-10
2.363555e-08
7.616121e-08
1.288388e-10
2.333705e-08
7.712034e-08
1.45105e-10
2.292492e-08
7.856197e-08
1.673166e-10
2.234111e-08
8.071417e-08
2.000526e-10
2.147418e-08
2.485339e-10
2.021171e-08
8.391197e-08
1.990571e-08
-3.152103e-10
3.26624e-09
3.532296e-08
-6.851387e-10
8.132788e-09
4.720849e-08
-9.232336e-10
1.190826e-08
5.627952e-08
-1.093025e-09
1.489707e-08
6.311337e-08
-1.216328e-09
1.726133e-08
6.816798e-08
-1.302051e-09
1.912967e-08
7.181895e-08
-1.357339e-09
2.059173e-08
7.437901e-08
-1.394017e-09
2.17223e-08
7.609077e-08
-1.416922e-09
2.259638e-08
7.71621e-08
-1.428839e-09
2.32515e-08
7.776128e-08
-1.432603e-09
2.373022e-08
7.80231e-08
-1.430462e-09
2.406831e-08
7.805407e-08
-1.424003e-09
2.42957e-08
7.793724e-08
-1.41443e-09
2.443705e-08
7.773669e-08
-1.402699e-09
2.451234e-08
7.750134e-08
-1.389556e-09
2.453747e-08
7.726821e-08
-1.375462e-09
2.452486e-08
7.706526e-08
-1.360652e-09
2.448387e-08
7.691392e-08
-1.345182e-09
2.442113e-08
7.683158e-08
-1.328931e-09
2.434068e-08
7.683386e-08
-1.31156e-09
2.424403e-08
7.693724e-08
-1.292418e-09
2.412987e-08
7.716195e-08
-1.270342e-09
2.399347e-08
7.75357e-08
-1.243277e-09
2.382566e-08
7.809843e-08
-1.207595e-09
2.36111e-08
7.890868e-08
-1.157043e-09