/*--------------------------------*- C++ -*----------------------------------*\
| =========                 |                                                 |
| \\      /  F ield         | OpenFOAM: The Open Source CFD Toolbox           |
|  \\    /   O peration     | Version:  4.0                                   |
|   \\  /    A nd           | Web:      www.OpenFOAM.org                      |
|    \\/     M anipulation  |                                                 |
\*---------------------------------------------------------------------------*/
FoamFile
{
    version     2.0;
    format      ascii;
    class       surfaceScalarField;
    location    "60/air";
    object      phi;
}
// * * * * * * * * * * * * * * * * * * * * * * * * * * * * * * * * * * * * * //

dimensions      [1 0 -1 0 0 0 0];

internalField   nonuniform List<scalar> 
111448
(
2.895171e-07
6.343857e-10
2.810985e-07
3.832811e-07
9.091266e-10
4.765769e-07
3.997441e-07
7.299898e-10
5.54057e-07
3.917969e-07
9.792818e-10
5.78218e-07
3.784325e-07
1.261273e-09
5.833531e-07
3.657265e-07
1.359196e-09
5.825968e-07
3.542151e-07
1.394228e-09
5.813672e-07
3.436207e-07
1.377725e-09
5.804667e-07
3.336128e-07
1.274823e-09
5.799831e-07
3.241898e-07
1.153753e-09
5.795192e-07
3.1537e-07
1.036715e-09
5.790331e-07
3.071586e-07
9.210021e-10
5.785404e-07
2.995673e-07
7.994732e-10
5.780419e-07
2.925679e-07
6.536258e-10
5.775957e-07
2.861923e-07
5.118146e-10
5.771138e-07
2.803614e-07
3.720679e-10
5.767089e-07
2.75091e-07
1.970985e-10
5.763233e-07
2.704212e-07
-1.234969e-11
5.759321e-07
2.663329e-07
-2.42117e-10
5.755804e-07
2.628052e-07
-4.916765e-10
5.752694e-07
2.598297e-07
-7.754911e-10
5.750009e-07
2.574266e-07
-1.087001e-09
5.747401e-07
2.55621e-07
-1.42471e-09
5.744803e-07
2.544374e-07
-1.788136e-09
5.742218e-07
2.538364e-07
-2.185885e-09
5.740368e-07
2.538749e-07
-2.481825e-09
5.736934e-07
2.54469e-07
-2.873878e-09
5.735297e-07
2.557455e-07
-3.135599e-09
5.731092e-07
2.583618e-07
-2.805128e-09
5.714388e-07
4.285524e-09
5.543881e-07
2.709382e-07
2.893845e-07
-4.383592e-10
2.829383e-07
3.818699e-07
-5.977911e-10
4.802715e-07
3.955881e-07
-7.754025e-10
5.590373e-07
3.892835e-07
-7.389074e-10
5.792727e-07
3.773367e-07
-6.351022e-10
5.850932e-07
3.64587e-07
-5.270901e-10
5.858859e-07
3.523483e-07
-4.051276e-10
5.852881e-07
3.408105e-07
-3.408311e-10
5.845064e-07
3.301141e-07
-4.124959e-10
5.836337e-07
3.199284e-07
-5.63058e-10
5.831525e-07
3.103341e-07
-7.407071e-10
5.826217e-07
3.013879e-07
-9.366313e-10
5.820538e-07
2.930756e-07
-1.163182e-09
5.81525e-07
2.85265e-07
-1.442453e-09
5.811567e-07
2.780244e-07
-1.730446e-09
5.807328e-07
2.715428e-07
-2.034607e-09
5.801383e-07
2.657599e-07
-2.389886e-09
5.796199e-07
2.605442e-07
-2.785867e-09
5.792393e-07
2.559151e-07
-3.222606e-09
5.788595e-07
2.519314e-07
-3.709931e-09
5.78452e-07
2.485606e-07
-4.239181e-09
5.780845e-07
2.458403e-07
-4.819585e-09
5.777029e-07
2.43794e-07
-5.463862e-09
5.773354e-07
2.424507e-07
-6.186369e-09
5.769915e-07
2.418624e-07
-6.976077e-09
5.766285e-07
2.421629e-07
-7.801356e-09
5.762691e-07
2.432441e-07
-8.600292e-09
5.758952e-07
2.445062e-07
-8.819869e-09
5.756722e-07
2.482691e-07
-7.382948e-09
5.720649e-07
2.031505e-09
5.569322e-07
2.648409e-07
2.889877e-07
-1.343845e-09
2.831678e-07
3.809675e-07
-1.94237e-09
4.806147e-07
3.943163e-07
-2.057435e-09
5.591833e-07
3.855539e-07
-2.01147e-09
5.812849e-07
3.732349e-07
-1.846133e-09
5.8478e-07
3.609047e-07
-1.679649e-09
5.847328e-07
3.481307e-07
-1.476576e-09
5.850955e-07
3.359421e-07
-1.289853e-09
5.843876e-07
3.24096e-07
-1.167183e-09
5.838508e-07
3.125476e-07
-1.059816e-09
5.832952e-07
3.013075e-07
-9.37066e-10
5.826865e-07
2.903296e-07
-7.902386e-10
5.820815e-07
2.795347e-07
-6.319868e-10
5.815137e-07
2.688367e-07
-4.669473e-10
5.809725e-07
2.581449e-07
-2.651341e-10
5.804764e-07
2.473843e-07
-4.666494e-11
5.800227e-07
2.363714e-07
1.964231e-10
5.796766e-07
2.250615e-07
4.907694e-10
5.792832e-07
2.133901e-07
8.380997e-10
5.788607e-07
2.011378e-07
1.238949e-09
5.785535e-07
1.881979e-07
1.729358e-09
5.782214e-07
1.744065e-07
2.31296e-09
5.779088e-07
1.595942e-07
2.997144e-09
5.776014e-07
1.435197e-07
3.785509e-09
5.773526e-07
1.259686e-07
4.711059e-09
5.77114e-07
1.067589e-07
5.80077e-09
5.768576e-07
8.599023e-08
7.216701e-09
5.762016e-07
6.540371e-08
9.291551e-09
5.737251e-07
5.565241e-08
1.342356e-08
5.601948e-07
1.86546e-08
5.158367e-07
9.444264e-08
2.891554e-07
2.807508e-07
3.824967e-07
4.759663e-07
3.942152e-07
5.57474e-07
3.839298e-07
5.79524e-07
3.711073e-07
5.822263e-07
3.585444e-07
5.821333e-07
3.469748e-07
5.81343e-07
3.364905e-07
5.804445e-07
3.267037e-07
5.798696e-07
3.174338e-07
5.794601e-07
3.088175e-07
5.789292e-07
3.009594e-07
5.783178e-07
2.938839e-07
5.776935e-07
2.87539e-07
5.77128e-07
2.819586e-07
5.765653e-07
2.771094e-07
5.760526e-07
2.729919e-07
5.755639e-07
2.696235e-07
5.751092e-07
2.670135e-07
5.74698e-07
2.652102e-07
5.742923e-07
2.643173e-07
5.738722e-07
2.644628e-07
5.734175e-07
2.657468e-07
5.729631e-07
2.682719e-07
5.725104e-07
2.721918e-07
5.720411e-07
2.776536e-07
5.71589e-07
2.850684e-07
5.71052e-07
2.949656e-07
5.706443e-07
3.113362e-07
5.68303e-07
5.5084e-07
3.504008e-07
2.932752e-07
1.413074e-09
2.765617e-07
3.923826e-07
2.050907e-09
4.700917e-07
4.092136e-07
1.905807e-09
5.525132e-07
4.017025e-07
1.757519e-09
5.770036e-07
3.913482e-07
1.816796e-09
5.797875e-07
3.812265e-07
1.845888e-09
5.795258e-07
3.719865e-07
1.847819e-09
5.786422e-07
3.63567e-07
1.819066e-09
5.778505e-07
3.557732e-07
1.765229e-09
5.772785e-07
3.486742e-07
1.691081e-09
5.766579e-07
3.423059e-07
1.628424e-09
5.759898e-07
3.366663e-07
1.572518e-09
5.753172e-07
3.317464e-07
1.507225e-09
5.746626e-07
3.275336e-07
1.417094e-09
5.740457e-07
3.240275e-07
1.308059e-09
5.73448e-07
3.212325e-07
1.1836e-09
5.728614e-07
3.191597e-07
1.042254e-09
5.722806e-07
3.178282e-07
8.793672e-10
5.717021e-07
3.172583e-07
6.9268e-10
5.711273e-07
3.174734e-07
4.813762e-10
5.705535e-07
3.184994e-07
2.430721e-10
5.699809e-07
3.203667e-07
-2.577347e-11
5.694084e-07
3.23112e-07
-3.326723e-10
5.688374e-07
3.267742e-07
-6.791863e-10
5.682669e-07
3.314243e-07
-1.086415e-09
5.676864e-07
3.370791e-07
-1.529824e-09
5.67125e-07
3.439239e-07
-2.097691e-09
5.66503e-07
3.518081e-07
-2.610147e-09
5.659759e-07
3.614408e-07
-2.90063e-09
5.64518e-07
-7.771063e-10
5.581757e-07
3.752922e-07
2.939043e-07
3.181959e-11
2.78727e-07
3.927937e-07
4.90468e-11
4.743624e-07
4.140253e-07
1.354905e-11
5.519107e-07
4.089392e-07
-8.30909e-12
5.78102e-07
3.993436e-07
1.692512e-12
5.826607e-07
3.894702e-07
9.641302e-11
5.828729e-07
3.801755e-07
1.668119e-10
5.822256e-07
3.713982e-07
2.009539e-10
5.816455e-07
3.632859e-07
2.095397e-10
5.80918e-07
3.557041e-07
2.0312e-10
5.803197e-07
3.486475e-07
1.588249e-10
5.797762e-07
3.421631e-07
9.246977e-11
5.792144e-07
3.364445e-07
2.257638e-11
5.784533e-07
3.314217e-07
-5.396229e-11
5.777438e-07
3.269644e-07
-1.347133e-10
5.7715e-07
3.230817e-07
-2.301563e-10
5.765465e-07
3.198003e-07
-3.229435e-10
5.758966e-07
3.171089e-07
-4.270178e-10
5.752478e-07
3.149697e-07
-5.540261e-10
5.746359e-07
3.133585e-07
-7.075812e-10
5.740502e-07
3.122582e-07
-8.879387e-10
5.734813e-07
3.116759e-07
-1.095355e-09
5.729018e-07
3.115972e-07
-1.333445e-09
5.723296e-07
3.12005e-07
-1.604009e-09
5.71767e-07
3.129011e-07
-1.91812e-09
5.711856e-07
3.142632e-07
-2.268672e-09
5.706268e-07
3.161436e-07
-2.681618e-09
5.699536e-07
3.183391e-07
-3.065635e-09
5.695099e-07
3.228267e-07
-3.333381e-09
5.671951e-07
-1.750385e-09
5.504339e-07
3.446161e-07
2.935431e-07
-1.148879e-09
2.788876e-07
3.919866e-07
-1.71964e-09
4.745752e-07
4.1238e-07
-1.666477e-09
5.525366e-07
4.074249e-07
-1.526323e-09
5.777231e-07
3.95915e-07
-1.480161e-09
5.842418e-07
3.852222e-07
-1.353477e-09
5.833926e-07
3.754574e-07
-1.214359e-09
5.82396e-07
3.665571e-07
-1.075879e-09
5.814271e-07
3.58158e-07
-9.662291e-10
5.808249e-07
3.502431e-07
-8.292361e-10
5.801972e-07
3.426955e-07
-6.717878e-10
5.796282e-07
3.355818e-07
-4.747603e-10
5.789309e-07
3.288677e-07
-2.427609e-10
5.782295e-07
3.223602e-07
-2.567167e-12
5.777061e-07
3.161459e-07
2.565143e-10
5.77073e-07
3.100178e-07
5.317997e-10
5.766161e-07
3.041355e-07
8.56567e-10
5.759528e-07
2.984799e-07
1.244608e-09
5.75234e-07
2.928945e-07
1.694131e-09
5.745872e-07
2.872216e-07
2.20378e-09
5.740116e-07
2.813373e-07
2.780819e-09
5.734655e-07
2.751279e-07
3.434475e-09
5.729296e-07
2.684556e-07
4.17618e-09
5.724127e-07
2.611818e-07
5.02012e-09
5.718997e-07
2.531397e-07
5.98827e-09
5.713857e-07
2.441075e-07
7.08157e-09
5.709319e-07
2.34019e-07
8.320792e-09
5.703362e-07
2.225823e-07
9.689753e-09
5.699312e-07
2.140457e-07
1.164741e-08
5.648059e-07
1.004792e-08
5.427943e-07
2.307031e-07
2.938315e-07
2.762696e-07
3.938128e-07
4.695491e-07
4.115063e-07
5.5189e-07
4.040458e-07
5.771841e-07
3.941291e-07
5.796866e-07
3.846582e-07
5.793673e-07
3.762315e-07
5.784624e-07
3.688712e-07
5.775344e-07
3.620876e-07
5.770675e-07
3.560599e-07
5.764484e-07
3.50725e-07
5.759131e-07
3.462917e-07
5.752085e-07
3.429056e-07
5.743934e-07
3.405448e-07
5.736082e-07
3.391016e-07
5.729498e-07
3.385252e-07
5.723581e-07
3.388778e-07
5.71754e-07
3.402663e-07
5.711061e-07
3.427845e-07
5.704259e-07
3.464857e-07
5.697526e-07
3.514612e-07
5.690553e-07
3.578022e-07
5.683436e-07
3.656046e-07
5.676237e-07
3.749763e-07
5.668985e-07
3.860604e-07
5.661542e-07
3.989675e-07
5.654245e-07
4.139151e-07
5.646232e-07
4.30885e-07
5.639699e-07
4.504245e-07
5.633579e-07
5.501248e-07
4.815976e-07
2.93873e-07
1.551718e-09
2.758252e-07
3.939208e-07
2.287156e-09
4.68915e-07
4.170816e-07
2.185972e-09
5.459033e-07
4.114372e-07
2.360353e-09
5.745341e-07
3.998094e-07
2.680491e-09
5.801973e-07
3.889744e-07
2.688757e-09
5.793963e-07
3.792725e-07
2.590462e-09
5.783614e-07
3.706703e-07
2.448575e-09
5.774036e-07
3.629693e-07
2.300847e-09
5.766501e-07
3.560638e-07
2.153924e-09
5.760016e-07
3.49997e-07
2.01517e-09
5.753017e-07
3.447411e-07
1.894663e-09
5.746112e-07
3.40269e-07
1.776642e-09
5.739455e-07
3.365724e-07
1.64311e-09
5.733035e-07
3.336656e-07
1.49204e-09
5.726648e-07
3.315775e-07
1.32675e-09
5.720113e-07
3.303403e-07
1.147973e-09
5.713393e-07
3.299687e-07
9.581084e-10
5.706635e-07
3.304672e-07
7.577565e-10
5.699938e-07
3.3185e-07
5.422434e-10
5.69325e-07
3.341415e-07
3.038178e-10
5.686547e-07
3.373754e-07
3.374688e-11
5.679823e-07
3.415947e-07
-2.773832e-10
5.673081e-07
3.468487e-07
-6.365727e-10
5.666326e-07
3.53209e-07
-1.057077e-09
5.659467e-07
3.607244e-07
-1.539492e-09
5.652741e-07
3.695491e-07
-2.116431e-09
5.645417e-07
3.796334e-07
-2.738504e-09
5.639042e-07
3.911202e-07
-3.160189e-09
5.629233e-07
-3.024147e-09
5.585992e-07
4.067952e-07
2.952151e-07
1.360083e-10
2.774507e-07
3.959775e-07
2.137824e-10
4.725609e-07
4.144504e-07
2.068204e-10
5.547562e-07
4.082663e-07
1.109949e-10
5.796835e-07
3.984273e-07
-1.293008e-12
5.837708e-07
3.895778e-07
2.049501e-11
5.827678e-07
3.817918e-07
7.317687e-11
5.815533e-07
3.74671e-07
1.587279e-10
5.806607e-07
3.680248e-07
2.433901e-10
5.799537e-07
3.61751e-07
3.111331e-10
5.793666e-07
3.559335e-07
3.671605e-10
5.787155e-07
3.505396e-07
4.021452e-10
5.781364e-07
3.457102e-07
4.174368e-10
5.774387e-07
3.415145e-07
4.407108e-10
5.76648e-07
3.3783e-07
4.712324e-10
5.759553e-07
3.345664e-07
5.031956e-10
5.753371e-07
3.317341e-07
5.356159e-10
5.746947e-07
3.292646e-07
5.719848e-10
5.741056e-07
3.271505e-07
6.099586e-10
5.735119e-07
3.254131e-07
6.470175e-10
5.728826e-07
3.240493e-07
6.819585e-10
5.722356e-07
3.230323e-07
7.145536e-10
5.715862e-07
3.223182e-07
7.44855e-10
5.709419e-07
3.218487e-07
7.703424e-10
5.703125e-07
3.21583e-07
7.926038e-10
5.696661e-07
3.214259e-07
8.014745e-10
5.690661e-07
3.21422e-07
8.125373e-10
5.68325e-07
3.212225e-07
8.045345e-10
5.679065e-07
3.232573e-07
7.762926e-10
5.652786e-07
6.921046e-10
5.484319e-07
3.423592e-07
2.950751e-07
-1.440071e-09
2.777509e-07
3.957136e-07
-2.096372e-09
4.729217e-07
4.178716e-07
-1.743157e-09
5.51042e-07
4.127605e-07
-1.783884e-09
5.78256e-07
4.021139e-07
-1.82122e-09
5.837165e-07
3.922248e-07
-1.78916e-09
5.829488e-07
3.836416e-07
-1.649789e-09
5.815561e-07
3.759273e-07
-1.499382e-09
5.806225e-07
3.688724e-07
-1.353552e-09
5.799018e-07
3.622962e-07
-1.211196e-09
5.793485e-07
3.562468e-07
-1.061491e-09
5.787281e-07
3.508145e-07
-8.867826e-10
5.779712e-07
3.457791e-07
-6.948168e-10
5.773977e-07
3.41241e-07
-4.881654e-10
5.76717e-07
3.371667e-07
-2.635665e-10
5.760591e-07
3.335347e-07
-1.644206e-11
5.754017e-07
3.30248e-07
2.54824e-10
5.748175e-07
3.27304e-07
5.507356e-10
5.742152e-07
3.247205e-07
8.767146e-10
5.735668e-07
3.224761e-07
1.241403e-09
5.729e-07
3.205157e-07
1.653463e-09
5.722389e-07
3.187734e-07
2.121207e-09
5.715856e-07
3.171754e-07
2.654558e-09
5.709382e-07
3.156432e-07
3.262125e-09
5.702904e-07
3.140973e-07
3.962188e-09
5.696263e-07
3.12401e-07
4.751719e-09
5.689961e-07
3.105726e-07
5.653469e-09
5.682375e-07
3.082117e-07
6.63556e-09
5.677798e-07
3.078007e-07
7.493277e-09
5.64944e-07
7.892865e-09
5.476608e-07
3.241891e-07
2.941316e-07
2.756783e-07
3.946643e-07
4.68621e-07
4.185626e-07
5.456085e-07
4.120215e-07
5.760072e-07
4.007498e-07
5.807004e-07
3.90565e-07
5.796457e-07
3.818261e-07
5.783391e-07
3.742889e-07
5.772878e-07
3.677542e-07
5.764311e-07
3.620825e-07
5.757106e-07
3.572315e-07
5.750395e-07
3.532406e-07
5.743541e-07
3.50215e-07
5.735807e-07
3.48108e-07
5.728689e-07
3.469433e-07
5.721511e-07
3.46683e-07
5.714939e-07
3.473859e-07
5.708018e-07
3.491287e-07
5.70058e-07
3.519358e-07
5.693196e-07
3.558281e-07
5.685991e-07
3.608419e-07
5.678897e-07
3.670322e-07
5.671808e-07
3.744719e-07
5.664649e-07
3.832477e-07
5.657363e-07
3.934706e-07
5.649893e-07
4.052396e-07
5.642327e-07
4.186774e-07
5.634657e-07
4.338901e-07
5.626729e-07
4.50205e-07
5.624283e-07
5.592029e-07
4.70145e-07
2.942707e-07
1.209071e-09
2.757702e-07
3.949294e-07
1.794975e-09
4.687964e-07
4.183698e-07
1.588147e-09
5.462215e-07
4.130059e-07
1.880705e-09
5.747332e-07
4.017046e-07
2.184199e-09
5.80367e-07
3.913268e-07
2.054623e-09
5.795732e-07
3.824657e-07
1.922934e-09
5.781882e-07
3.748076e-07
1.847865e-09
5.770601e-07
3.677787e-07
1.743699e-09
5.765353e-07
3.614767e-07
1.634986e-09
5.75917e-07
3.559205e-07
1.526785e-09
5.752794e-07
3.511366e-07
1.403939e-09
5.7463e-07
3.471667e-07
1.267042e-09
5.739528e-07
3.44101e-07
1.10773e-09
5.73208e-07
3.41961e-07
9.190401e-10
5.72471e-07
3.407527e-07
7.071521e-10
5.717511e-07
3.404563e-07
4.758266e-10
5.710705e-07
3.410931e-07
2.219798e-10
5.703912e-07
3.427083e-07
-5.886703e-11
5.696936e-07
3.453409e-07
-3.716075e-10
5.689891e-07
3.49026e-07
-7.221251e-10
5.68287e-07
3.538071e-07
-1.117805e-09
5.675867e-07
3.597405e-07
-1.568197e-09
5.668848e-07
3.668955e-07
-2.081646e-09
5.661766e-07
3.753617e-07
-2.672986e-09
5.654568e-07
3.852222e-07
-3.343175e-09
5.647327e-07
3.966278e-07
-4.127292e-09
5.639716e-07
4.09616e-07
-4.971588e-09
5.632335e-07
4.238044e-07
-5.627831e-09
5.626894e-07
-5.904219e-09
5.591882e-07
4.417704e-07
2.945714e-07
1.688701e-10
2.777188e-07
3.945073e-07
2.21093e-10
4.72888e-07
4.164059e-07
1.719516e-10
5.507676e-07
4.089937e-07
1.10866e-10
5.80432e-07
3.998811e-07
-3.964861e-12
5.825508e-07
3.911078e-07
9.514081e-12
5.820684e-07
3.83127e-07
2.435695e-11
5.811294e-07
3.75553e-07
-2.818395e-12
5.806747e-07
3.683233e-07
-3.963719e-12
5.802274e-07
3.618291e-07
-2.783955e-11
5.79407e-07
3.556559e-07
-5.467899e-11
5.790046e-07
3.502318e-07
-7.965934e-11
5.781577e-07
3.452476e-07
-9.652345e-11
5.775978e-07
3.408803e-07
-1.19725e-10
5.768448e-07
3.371555e-07
-1.356011e-10
5.760294e-07
3.339062e-07
-1.398125e-10
5.753463e-07
3.310403e-07
-1.371338e-10
5.747289e-07
3.285406e-07
-1.3006e-10
5.741017e-07
3.263876e-07
-1.19507e-10
5.734637e-07
3.245463e-07
-1.065511e-10
5.728262e-07
3.229729e-07
-9.294282e-11
5.721942e-07
3.216264e-07
-8.036963e-11
5.715591e-07
3.204599e-07
-6.944758e-11
5.709178e-07
3.194105e-07
-6.021509e-11
5.70278e-07
3.184213e-07
-5.256924e-11
5.696187e-07
3.173599e-07
-4.744409e-11
5.690157e-07
3.162585e-07
-4.38635e-11
5.682679e-07
3.146903e-07
-4.036492e-11
5.67887e-07
3.153117e-07
-5.01777e-11
5.650509e-07
-6.65768e-11
5.48e-07
3.327241e-07
2.951782e-07
-1.374107e-09
2.776148e-07
3.959155e-07
-2.021739e-09
4.727555e-07
4.183726e-07
-1.769144e-09
5.50734e-07
4.134054e-07
-1.744451e-09
5.780725e-07
4.030785e-07
-2.099503e-09
5.836725e-07
3.94341e-07
-2.091219e-09
5.820882e-07
3.868691e-07
-1.998508e-09
5.807447e-07
3.792558e-07
-1.884625e-09
5.807452e-07
3.722823e-07
-1.767192e-09
5.799867e-07
3.657657e-07
-1.639066e-09
5.793778e-07
3.596918e-07
-1.501328e-09
5.787706e-07
3.540402e-07
-1.35722e-09
5.781791e-07
3.489577e-07
-1.204727e-09
5.774407e-07
3.44448e-07
-1.043365e-09
5.766833e-07
3.404253e-07
-8.674355e-10
5.760046e-07
3.368391e-07
-6.705422e-10
5.753669e-07
3.336458e-07
-4.495274e-10
5.747557e-07
3.308292e-07
-2.019632e-10
5.741385e-07
3.283761e-07
7.549684e-11
5.735081e-07
3.262614e-07
3.871789e-10
5.72871e-07
3.244483e-07
7.388451e-10
5.722313e-07
3.228869e-07
1.137042e-09
5.71594e-07
3.215174e-07
1.590033e-09
5.7096e-07
3.202734e-07
2.104736e-09
5.70329e-07
3.190979e-07
2.696423e-09
5.696766e-07
3.178606e-07
3.364023e-09
5.690759e-07
3.166007e-07
4.144984e-09
5.68321e-07
3.148569e-07
4.991869e-09
5.679616e-07
3.153104e-07
5.632246e-09
5.65114e-07
5.871452e-09
5.481675e-07
3.324549e-07
2.94127e-07
2.757489e-07
3.945718e-07
4.687835e-07
4.178274e-07
5.462252e-07
4.127524e-07
5.745806e-07
4.016456e-07
5.802573e-07
3.912858e-07
5.795186e-07
3.823828e-07
5.781544e-07
3.746382e-07
5.771101e-07
3.676804e-07
5.764405e-07
3.613853e-07
5.759061e-07
3.558143e-07
5.753197e-07
3.510734e-07
5.746337e-07
3.473246e-07
5.737941e-07
3.444953e-07
5.730359e-07
3.42496e-07
5.723819e-07
3.413152e-07
5.717603e-07
3.409902e-07
5.711255e-07
3.415729e-07
5.704653e-07
3.431141e-07
5.697843e-07
3.456614e-07
5.690899e-07
3.492626e-07
5.683877e-07
3.539697e-07
5.676799e-07
3.598423e-07
5.669675e-07
3.66947e-07
5.6625e-07
3.753726e-07
5.655208e-07
3.851942e-07
5.647925e-07
3.965623e-07
5.640269e-07
4.09529e-07
5.632751e-07
4.236555e-07
5.627557e-07
5.59137e-07
4.4164e-07
2.943227e-07
1.307157e-09
2.756201e-07
3.950863e-07
1.924333e-09
4.685621e-07
4.191759e-07
1.629555e-09
5.455308e-07
4.148793e-07
1.567672e-09
5.73979e-07
4.044015e-07
1.828478e-09
5.798993e-07
3.946161e-07
1.85427e-09
5.791812e-07
3.858801e-07
1.738917e-09
5.78247e-07
3.780987e-07
1.594017e-09
5.774374e-07
3.714241e-07
1.447951e-09
5.764767e-07
3.65705e-07
1.310851e-09
5.756582e-07
3.608103e-07
1.166468e-09
5.749782e-07
3.567335e-07
1.008346e-09
5.743184e-07
3.534994e-07
8.337247e-10
5.736504e-07
3.511248e-07
6.349976e-10
5.729897e-07
3.496563e-07
4.097948e-10
5.723087e-07
3.491363e-07
1.570713e-10
5.716129e-07
3.495932e-07
-1.237805e-10
5.709169e-07
3.510732e-07
-4.318562e-10
5.702018e-07
3.53621e-07
-7.685322e-10
5.694708e-07
3.572732e-07
-1.139745e-09
5.687375e-07
3.620693e-07
-1.555106e-09
5.68009e-07
3.68061e-07
-2.024578e-09
5.672829e-07
3.753173e-07
-2.559771e-09
5.665535e-07
3.839202e-07
-3.169063e-09
5.658161e-07
3.939778e-07
-3.870733e-09
5.650632e-07
4.055862e-07
-4.661277e-09
5.643028e-07
4.188615e-07
-5.561452e-09
5.635362e-07
4.339103e-07
-6.545315e-09
5.627465e-07
4.502e-07
-7.396907e-09
5.623573e-07
-7.782652e-09
5.596024e-07
4.696302e-07
2.949687e-07
-1.804942e-10
2.777689e-07
3.954704e-07
-2.561844e-10
4.729288e-07
4.175036e-07
-2.257807e-10
5.510722e-07
4.124114e-07
-1.103423e-10
5.780202e-07
4.023018e-07
-3.755857e-11
5.832256e-07
3.924907e-07
-9.298437e-11
5.830083e-07
3.838501e-07
-1.515305e-10
5.817811e-07
3.76156e-07
-2.206995e-10
5.807588e-07
3.690884e-07
-2.853343e-10
5.800509e-07
3.625869e-07
-3.489869e-10
5.794114e-07
3.567098e-07
-4.026757e-10
5.786962e-07
3.512816e-07
-4.260141e-10
5.781126e-07
3.463108e-07
-4.332877e-10
5.774878e-07
3.418273e-07
-4.405521e-10
5.768091e-07
3.377653e-07
-4.481582e-10
5.761699e-07
3.341176e-07
-4.541182e-10
5.755089e-07
3.308378e-07
-4.60616e-10
5.748666e-07
3.278786e-07
-4.722593e-10
5.742496e-07
3.252338e-07
-4.913825e-10
5.736177e-07
3.229012e-07
-5.173814e-10
5.729603e-07
3.208608e-07
-5.45951e-10
5.722812e-07
3.190517e-07
-5.731339e-10
5.716077e-07
3.173981e-07
-5.976731e-10
5.709415e-07
3.158107e-07
-6.173198e-10
5.702857e-07
3.142089e-07
-6.344744e-10
5.696155e-07
3.124435e-07
-6.389063e-10
5.689931e-07
3.10544e-07
-6.465155e-10
5.682346e-07
3.080766e-07
-6.335177e-10
5.678056e-07
3.076733e-07
-6.056727e-10
5.64862e-07
-5.311382e-10
5.47855e-07
3.238168e-07
2.951124e-07
-1.503579e-09
2.774607e-07
3.957491e-07
-2.206716e-09
4.725638e-07
4.148901e-07
-2.089315e-09
5.539726e-07
4.096485e-07
-2.203674e-09
5.785849e-07
4.012308e-07
-2.492466e-09
5.821226e-07
3.924458e-07
-2.461228e-09
5.824033e-07
3.841896e-07
-2.369084e-09
5.817237e-07
3.765881e-07
-2.257144e-09
5.80888e-07
3.695319e-07
-2.122736e-09
5.801435e-07
3.629317e-07
-1.979828e-09
5.79481e-07
3.567462e-07
-1.846384e-09
5.788792e-07
3.509363e-07
-1.728324e-09
5.783623e-07
3.456923e-07
-1.614588e-09
5.776753e-07
3.410273e-07
-1.495007e-09
5.769695e-07
3.368264e-07
-1.370856e-09
5.763736e-07
3.331389e-07
-1.243077e-09
5.757264e-07
3.300052e-07
-1.107838e-09
5.75031e-07
3.273905e-07
-9.614447e-10
5.743538e-07
3.252711e-07
-7.984083e-10
5.736764e-07
3.236025e-07
-6.130655e-10
5.730144e-07
3.223488e-07
-3.989375e-10
5.723567e-07
3.214925e-07
-1.47479e-10
5.716806e-07
3.210019e-07
1.511668e-10
5.709918e-07
3.208149e-07
5.040202e-10
5.703156e-07
3.20875e-07
9.235237e-10
5.69632e-07
3.210677e-07
1.40836e-09
5.6901e-07
3.2144e-07
1.988575e-09
5.682426e-07
3.215813e-07
2.621822e-09
5.678534e-07
3.239559e-07
3.057654e-09
5.652121e-07
2.936408e-09
5.485649e-07
3.431735e-07
2.938946e-07
2.758518e-07
3.939967e-07
4.689412e-07
4.167865e-07
5.463709e-07
4.11038e-07
5.747948e-07
3.993944e-07
5.804011e-07
3.885313e-07
5.796518e-07
3.791863e-07
5.782259e-07
3.705397e-07
5.776395e-07
3.628343e-07
5.768327e-07
3.560786e-07
5.760258e-07
3.501501e-07
5.753321e-07
3.449841e-07
5.746877e-07
3.405855e-07
5.740341e-07
3.370129e-07
5.733275e-07
3.342454e-07
5.726467e-07
3.322991e-07
5.719532e-07
3.312091e-07
5.712321e-07
3.309702e-07
5.705275e-07
3.315684e-07
5.698534e-07
3.330065e-07
5.691989e-07
3.353044e-07
5.685532e-07
3.384991e-07
5.679079e-07
3.426416e-07
5.672586e-07
3.477924e-07
5.666032e-07
3.540346e-07
5.659314e-07
3.614243e-07
5.652686e-07
3.701217e-07
5.645411e-07
3.800854e-07
5.639081e-07
3.914839e-07
5.629092e-07
5.586532e-07
4.070171e-07
2.939161e-07
1.094629e-09
2.762393e-07
3.939951e-07
1.654025e-09
4.695169e-07
4.117903e-07
1.604e-09
5.518509e-07
4.044045e-07
1.452048e-09
5.771837e-07
3.946225e-07
1.365152e-09
5.796668e-07
3.853052e-07
1.27464e-09
5.792927e-07
3.77011e-07
1.178664e-09
5.783656e-07
3.696635e-07
1.084713e-09
5.775128e-07
3.629595e-07
9.888914e-10
5.769651e-07
3.569568e-07
8.589844e-10
5.763938e-07
3.516553e-07
6.908473e-10
5.758607e-07
3.473824e-07
4.791665e-10
5.750436e-07
3.441518e-07
2.606909e-10
5.7422e-07
3.418664e-07
4.247317e-11
5.734929e-07
3.404672e-07
-1.933276e-10
5.728425e-07
3.399712e-07
-4.678205e-10
5.722138e-07
3.404309e-07
-7.864564e-10
5.715767e-07
3.419134e-07
-1.165726e-09
5.709333e-07
3.444873e-07
-1.605861e-09
5.70282e-07
3.482232e-07
-2.10756e-09
5.696216e-07
3.531965e-07
-2.677171e-09
5.689539e-07
3.59494e-07
-3.324951e-09
5.682774e-07
3.672204e-07
-4.064675e-09
5.675882e-07
3.764962e-07
-4.910224e-09
5.668845e-07
3.874766e-07
-5.883662e-09
5.661532e-07
4.002852e-07
-6.986232e-09
5.654277e-07
4.151497e-07
-8.239433e-09
5.64625e-07
4.319241e-07
-9.520802e-09
5.639963e-07
4.514476e-07
-1.144895e-08
5.631755e-07
-9.964756e-09
5.510781e-07
4.815843e-07
2.934762e-07
-9.107343e-11
2.789595e-07
3.918689e-07
-1.032139e-10
4.746146e-07
4.125261e-07
-5.716244e-11
5.522539e-07
4.072828e-07
6.051137e-11
5.778848e-07
3.960379e-07
1.109801e-10
5.837491e-07
3.852198e-07
7.733621e-11
5.832654e-07
3.758856e-07
2.781354e-12
5.817601e-07
3.668784e-07
-4.794093e-11
5.813899e-07
3.585213e-07
-5.83136e-11
5.806543e-07
3.505794e-07
-4.183044e-11
5.800927e-07
3.430733e-07
-1.432093e-11
5.794613e-07
3.35984e-07
2.817656e-11
5.787903e-07
3.290885e-07
8.91751e-11
5.78317e-07
3.224009e-07
1.526555e-10
5.778275e-07
3.160467e-07
2.072553e-10
5.772036e-07
3.100618e-07
2.624605e-10
5.765046e-07
3.042907e-07
3.325555e-10
5.759021e-07
2.987492e-07
4.209784e-10
5.752048e-07
2.932848e-07
5.412071e-10
5.745673e-07
2.877314e-07
6.937913e-10
5.740021e-07
2.819662e-07
8.753791e-10
5.734627e-07
2.758817e-07
1.083424e-09
5.729261e-07
2.693537e-07
1.319912e-09
5.723934e-07
2.62239e-07
1.58713e-09
5.718673e-07
2.543629e-07
1.896849e-09
5.713456e-07
2.455139e-07
2.243163e-09
5.708696e-07
2.355825e-07
2.653577e-09
5.702885e-07
2.245288e-07
2.947232e-09
5.698356e-07
2.16148e-07
3.195994e-09
5.649859e-07
1.70589e-09
5.431138e-07
2.326135e-07
2.936747e-07
-1.290651e-09
2.787749e-07
3.923016e-07
-1.882106e-09
4.74402e-07
4.116678e-07
-1.83744e-09
5.536641e-07
4.067254e-07
-1.8333e-09
5.780862e-07
3.964557e-07
-1.835787e-09
5.834665e-07
3.863249e-07
-1.853907e-09
5.83312e-07
3.772095e-07
-1.872946e-09
5.822411e-07
3.688954e-07
-1.883805e-09
5.814e-07
3.611164e-07
-1.879034e-09
5.808497e-07
3.538479e-07
-1.831016e-09
5.803078e-07
3.472044e-07
-1.752784e-09
5.796319e-07
3.411442e-07
-1.665004e-09
5.790034e-07
3.357236e-07
-1.569413e-09
5.783291e-07
3.309257e-07
-1.461109e-09
5.776617e-07
3.267366e-07
-1.337348e-09
5.769838e-07
3.230837e-07
-1.196322e-09
5.763616e-07
3.199533e-07
-1.039814e-09
5.757528e-07
3.173071e-07
-8.672577e-10
5.751845e-07
3.151368e-07
-6.791827e-10
5.746407e-07
3.134691e-07
-4.733755e-10
5.740848e-07
3.123367e-07
-2.444592e-10
5.735023e-07
3.117561e-07
1.393597e-11
5.729001e-07
3.117235e-07
3.108182e-10
5.722916e-07
3.122159e-07
6.486763e-10
5.716961e-07
3.132212e-07
1.048275e-09
5.710933e-07
3.146973e-07
1.484743e-09
5.705323e-07
3.167026e-07
2.045273e-09
5.69853e-07
3.189025e-07
2.550102e-09
5.694472e-07
3.234798e-07
2.835505e-09
5.670332e-07
7.661163e-10
5.507235e-07
3.449461e-07
2.933996e-07
2.765597e-07
3.926692e-07
4.700983e-07
4.095634e-07
5.525183e-07
4.018934e-07
5.770868e-07
3.915379e-07
5.797697e-07
3.814251e-07
5.795088e-07
3.721097e-07
5.786925e-07
3.636624e-07
5.778135e-07
3.558134e-07
5.772199e-07
3.485427e-07
5.766897e-07
3.420535e-07
5.759864e-07
3.363412e-07
5.752973e-07
3.31363e-07
5.746588e-07
3.270969e-07
5.74055e-07
3.235582e-07
5.734513e-07
3.207675e-07
5.728444e-07
3.187319e-07
5.722458e-07
3.174637e-07
5.71651e-07
3.169648e-07
5.710697e-07
3.172389e-07
5.705025e-07
3.183031e-07
5.699413e-07
3.201912e-07
5.693759e-07
3.229478e-07
5.688042e-07
3.266188e-07
5.682276e-07
3.312774e-07
5.676397e-07
3.369412e-07
5.670709e-07
3.43791e-07
5.664455e-07
3.516781e-07
5.65913e-07
3.612993e-07
5.644644e-07
5.581708e-07
3.751446e-07
2.891426e-07
1.432276e-09
2.806751e-07
3.824337e-07
2.067069e-09
4.758919e-07
3.940002e-07
2.267084e-09
5.574164e-07
3.836127e-07
2.191835e-09
5.794456e-07
3.70664e-07
2.035572e-09
5.821632e-07
3.580451e-07
1.811594e-09
5.820572e-07
3.46458e-07
1.577016e-09
5.812601e-07
3.359703e-07
1.374934e-09
5.803628e-07
3.261854e-07
1.235736e-09
5.797992e-07
3.169204e-07
1.115707e-09
5.793993e-07
3.083094e-07
9.843956e-10
5.788766e-07
3.004493e-07
8.303089e-10
5.782798e-07
2.93371e-07
6.727315e-10
5.776556e-07
2.870604e-07
4.904901e-10
5.770701e-07
2.81486e-07
2.89363e-10
5.76535e-07
2.765855e-07
1.030187e-10
5.760475e-07
2.724495e-07
-1.569819e-10
5.75543e-07
2.690809e-07
-4.642559e-10
5.750828e-07
2.664976e-07
-8.151932e-10
5.746485e-07
2.647681e-07
-1.224629e-09
5.742041e-07
2.639883e-07
-1.719866e-09
5.737496e-07
2.642442e-07
-2.30047e-09
5.732946e-07
2.656281e-07
-2.981084e-09
5.728472e-07
2.682597e-07
-3.78856e-09
5.72407e-07
2.722803e-07
-4.733621e-09
5.71963e-07
2.77832e-07
-5.840252e-09
5.715386e-07
2.853041e-07
-7.246037e-09
5.71024e-07
2.952541e-07
-9.336498e-09
5.706365e-07
3.116734e-07
-1.346094e-08
5.682916e-07
-1.867962e-08
5.508451e-07
3.50758e-07
2.890124e-07
6.972146e-10
2.829727e-07
3.809726e-07
9.595481e-10
4.803973e-07
3.913467e-07
1.063715e-09
5.620793e-07
3.834638e-07
9.372935e-10
5.803874e-07
3.710007e-07
7.032519e-10
5.850454e-07
3.581622e-07
4.833927e-10
5.854167e-07
3.457068e-07
3.453925e-10
5.849371e-07
3.338588e-07
3.093476e-10
5.841636e-07
3.22242e-07
3.961803e-10
5.837063e-07
3.108286e-07
5.522572e-10
5.832269e-07
2.997026e-07
7.448837e-10
5.826156e-07
2.888116e-07
9.67742e-10
5.820035e-07
2.780607e-07
1.204056e-09
5.814696e-07
2.673833e-07
1.462776e-09
5.809552e-07
2.567941e-07
1.747729e-09
5.803808e-07
2.46003e-07
2.09278e-09
5.800513e-07
2.350066e-07
2.427085e-09
5.796623e-07
2.238028e-07
2.80843e-09
5.791811e-07
2.121632e-07
3.250947e-09
5.788235e-07
1.999158e-07
3.734608e-09
5.785382e-07
1.869941e-07
4.252404e-09
5.781994e-07
1.732225e-07
4.828115e-09
5.77893e-07
1.583946e-07
5.470028e-09
5.776267e-07
1.423907e-07
6.170545e-09
5.772948e-07
1.249535e-07
6.946307e-09
5.770073e-07
1.05901e-07
7.767084e-09
5.766952e-07
8.516086e-08
8.584256e-09
5.761599e-07
6.463159e-08
8.811951e-09
5.736308e-07
5.497546e-08
7.352754e-09
5.600924e-07
-2.074743e-09
5.156503e-07
9.397028e-08
2.899314e-07
-9.170732e-10
2.829329e-07
3.831456e-07
-1.280869e-09
4.802762e-07
3.981342e-07
-9.905033e-10
5.583156e-07
3.896178e-07
-9.511642e-10
5.816549e-07
3.759289e-07
-1.277921e-09
5.8692e-07
3.63003e-07
-1.375635e-09
5.860349e-07
3.508135e-07
-1.432667e-09
5.852176e-07
3.396159e-07
-1.402282e-09
5.841592e-07
3.289907e-07
-1.297502e-09
5.835688e-07
3.188591e-07
-1.172983e-09
5.831069e-07
3.09261e-07
-1.041068e-09
5.82634e-07
3.001668e-07
-9.008512e-10
5.822128e-07
2.917297e-07
-7.818725e-10
5.81673e-07
2.839909e-07
-6.485543e-10
5.811001e-07
2.769193e-07
-5.069989e-10
5.805763e-07
2.705295e-07
-3.538983e-10
5.800865e-07
2.647358e-07
-1.793134e-10
5.796501e-07
2.595091e-07
2.497332e-11
5.792601e-07
2.548434e-07
2.607604e-10
5.789059e-07
2.50823e-07
5.156459e-10
5.784893e-07
2.474611e-07
7.962346e-10
5.780681e-07
2.447629e-07
1.104711e-09
5.776716e-07
2.427387e-07
1.441054e-09
5.773032e-07
2.414046e-07
1.801644e-09
5.769529e-07
2.407934e-07
2.200328e-09
5.766072e-07
2.410343e-07