/*--------------------------------*- C++ -*----------------------------------*\
| =========                 |                                                 |
| \\      /  F ield         | OpenFOAM: The Open Source CFD Toolbox           |
|  \\    /   O peration     | Version:  4.0                                   |
|   \\  /    A nd           | Web:      www.OpenFOAM.org                      |
|    \\/     M anipulation  |                                                 |
\*---------------------------------------------------------------------------*/
FoamFile
{
    version     2.0;
    format      ascii;
    class       volScalarField;
    location    "60/air";
    object      rho;
}
// * * * * * * * * * * * * * * * * * * * * * * * * * * * * * * * * * * * * * //

dimensions      [1 -3 0 0 0 0 0];

internalField   nonuniform List<scalar> 
39776
(
0.9152676
0.9152619
0.915253
0.9152438
0.915234
0.9152233
0.9152124
0.9152014
0.9151903
0.9151791
0.9151678
0.9151563
0.9151447
0.9151329
0.9151209
0.9151087
0.9150963
0.9150837
0.9150709
0.9150578
0.9150444
0.9150308
0.9150169
0.9150026
0.914988
0.914973
0.9149575
0.9149414
0.9149235
0.9149023
0.9152645
0.9152588
0.9152501
0.9152408
0.9152309
0.9152205
0.9152099
0.9151992
0.9151884
0.9151775
0.9151665
0.9151553
0.9151441
0.9151326
0.9151211
0.9151093
0.9150974
0.9150853
0.915073
0.9150605
0.9150477
0.9150348
0.9150216
0.9150081
0.9149944
0.9149804
0.9149661
0.9149511
0.9149348
0.9149151
0.915267
0.9152613
0.9152526
0.9152437
0.9152342
0.9152241
0.9152138
0.9152034
0.915193
0.9151825
0.915172
0.9151614
0.9151507
0.91514
0.9151292
0.9151183
0.9151073
0.9150963
0.9150852
0.915074
0.9150628
0.9150515
0.9150402
0.9150289
0.9150175
0.915006
0.9149945
0.9149825
0.9149693
0.9149502
0.9152727
0.915267
0.9152581
0.9152491
0.9152394
0.915229
0.9152183
0.9152075
0.9151966
0.9151855
0.9151744
0.9151631
0.9151516
0.91514
0.9151281
0.9151161
0.9151038
0.9150913
0.9150785
0.9150654
0.915052
0.9150382
0.9150241
0.9150096
0.9149946
0.9149791
0.914963
0.9149461
0.9149277
0.9149046
0.915275
0.915269
0.9152598
0.9152502
0.91524
0.9152291
0.9152179
0.9152064
0.9151948
0.915183
0.915171
0.9151588
0.9151464
0.9151337
0.9151208
0.9151077
0.9150942
0.9150805
0.9150664
0.9150519
0.9150371
0.9150219
0.9150062
0.9149902
0.9149736
0.9149565
0.9149388
0.9149204
0.9149006
0.9148762
0.9152701
0.9152641
0.915255
0.9152453
0.9152351
0.9152244
0.9152134
0.9152023
0.915191
0.9151795
0.9151679
0.9151562
0.9151442
0.915132
0.9151197
0.9151071
0.9150942
0.9150812
0.9150678
0.9150542
0.9150404
0.9150262
0.9150117
0.914997
0.9149819
0.9149665
0.9149508
0.9149345
0.9149172
0.9148961
0.9152701
0.9152641
0.915255
0.9152454
0.9152353
0.9152247
0.9152138
0.9152028
0.9151916
0.9151803
0.9151689
0.9151573
0.9151456
0.9151337
0.9151216
0.9151093
0.9150968
0.9150842
0.9150713
0.9150582
0.9150449
0.9150314
0.9150177
0.9150038
0.9149897
0.9149754
0.9149608
0.9149459
0.9149298
0.9149105
0.9152744
0.9152682
0.915259
0.9152493
0.915239
0.9152281
0.9152167
0.9152052
0.9151935
0.9151816
0.9151695
0.9151572
0.9151446
0.9151317
0.9151186
0.9151051
0.9150913
0.9150772
0.9150627
0.9150477
0.9150324
0.9150165
0.9150001
0.9149832
0.9149656
0.9149474
0.9149285
0.9149087
0.9148876
0.9148624
0.9152774
0.9152712
0.9152619
0.9152522
0.9152418
0.9152308
0.9152195
0.9152079
0.9151961
0.9151842
0.915172
0.9151596
0.915147
0.915134
0.9151208
0.9151073
0.9150934
0.9150793
0.9150647
0.9150498
0.9150345
0.9150187
0.9150024
0.9149857
0.9149684
0.9149505
0.914932
0.9149128
0.9148921
0.9148672
0.9152719
0.9152658
0.9152565
0.915247
0.9152369
0.9152261
0.9152151
0.9152038
0.9151924
0.9151808
0.915169
0.9151571
0.9151449
0.9151326
0.91512
0.9151072
0.9150941
0.9150808
0.9150672
0.9150534
0.9150393
0.9150249
0.9150102
0.9149952
0.9149799
0.9149642
0.9149483
0.9149319
0.9149144
0.9148934
0.9152712
0.9152651
0.9152558
0.9152462
0.915236
0.9152253
0.9152142
0.915203
0.9151917
0.9151801
0.9151683
0.9151564
0.9151442
0.9151319
0.9151193
0.9151065
0.9150935
0.9150802
0.9150666
0.9150528
0.9150387
0.9150243
0.9150097
0.9149947
0.9149795
0.9149639
0.914948
0.9149317
0.9149144
0.9148936
0.9152758
0.9152696
0.9152602
0.9152504
0.9152401
0.915229
0.9152176
0.9152059
0.9151941
0.915182
0.9151697
0.9151571
0.9151443
0.9151312
0.9151179
0.9151042
0.9150901
0.9150757
0.9150608
0.9150456
0.9150299
0.9150137
0.914997
0.9149798
0.9149619
0.9149435
0.9149243
0.9149043
0.9148829
0.9148576
0.9152785
0.9152723
0.9152629
0.9152531
0.9152426
0.9152315
0.9152201
0.9152085
0.9151967
0.9151848
0.9151725
0.9151601
0.9151473
0.9151343
0.915121
0.9151074
0.9150934
0.9150791
0.9150644
0.9150493
0.9150338
0.9150178
0.9150013
0.9149843
0.9149667
0.9149485
0.9149297
0.91491
0.914889
0.9148639
0.9152735
0.9152673
0.9152581
0.9152484
0.9152382
0.9152274
0.9152163
0.9152051
0.9151937
0.9151822
0.9151704
0.9151585
0.9151464
0.915134
0.9151214
0.9151086
0.9150955
0.9150822
0.9150687
0.9150548
0.9150407
0.9150263
0.9150116
0.9149967
0.9149814
0.9149658
0.9149499
0.9149335
0.9149161
0.9148952
0.9152735
0.9152673
0.915258
0.9152485
0.9152384
0.9152276
0.9152166
0.9152053
0.9151939
0.9151823
0.9151706
0.9151586
0.9151464
0.9151341
0.9151215
0.9151086
0.9150956
0.9150822
0.9150687
0.9150548
0.9150407
0.9150263
0.9150116
0.9149967
0.9149814
0.9149658
0.9149499
0.9149336
0.9149162
0.9148953
0.9152786
0.9152724
0.915263
0.9152532
0.9152428
0.9152317
0.9152203
0.9152087
0.9151969
0.9151849
0.9151727
0.9151602
0.9151475
0.9151344
0.9151211
0.9151075
0.9150935
0.9150792
0.9150645
0.9150494
0.9150339
0.9150179
0.9150014
0.9149844
0.9149669
0.9149487
0.9149299
0.9149102
0.9148892
0.9148642
0.9152768
0.9152706
0.9152612
0.9152514
0.915241
0.91523
0.9152186
0.915207
0.9151951
0.915183
0.9151707
0.9151581
0.9151453
0.9151322
0.9151188
0.915105
0.915091
0.9150765
0.9150617
0.9150464
0.9150307
0.9150145
0.9149978
0.9149806
0.9149628
0.9149443
0.9149251
0.9149051
0.9148838
0.9148585
0.9152722
0.915266
0.9152568
0.9152472
0.9152371
0.9152263
0.9152153
0.9152041
0.9151927
0.9151811
0.9151693
0.9151574
0.9151452
0.9151328
0.9151202
0.9151074
0.9150944
0.915081
0.9150675
0.9150536
0.9150395
0.9150252
0.9150105
0.9149955
0.9149803
0.9149647
0.9149488
0.9149325
0.9149152
0.9148944
0.9152727
0.9152665
0.9152573
0.9152478
0.9152378
0.9152271
0.9152159
0.9152047
0.9151932
0.9151816
0.9151698
0.9151579
0.9151457
0.9151333
0.9151208
0.915108
0.9150949
0.9150816
0.915068
0.9150542
0.91504
0.9150256
0.9150109
0.9149959
0.9149806
0.914965
0.914949
0.9149325
0.9149151
0.9148941
0.9152782
0.9152721
0.9152627
0.9152529
0.9152426
0.9152315
0.9152201
0.9152086
0.9151968
0.9151848
0.9151726
0.9151602
0.9151476
0.9151347
0.9151215
0.915108
0.9150941
0.91508
0.9150654
0.9150505
0.9150352
0.9150194
0.9150031
0.9149864
0.9149691
0.9149512
0.9149327
0.9149135
0.9148928
0.9148679
0.9152751
0.915269
0.9152598
0.9152501
0.9152398
0.9152288
0.9152175
0.915206
0.9151943
0.9151824
0.9151703
0.915158
0.9151454
0.9151325
0.9151194
0.9151059
0.9150921
0.915078
0.9150634
0.9150485
0.9150331
0.9150172
0.9150008
0.9149839
0.9149663
0.9149481
0.9149292
0.9149094
0.9148883
0.9148631
0.9152706
0.9152646
0.9152555
0.9152461
0.9152362
0.9152256
0.9152147
0.9152037
0.9151926
0.9151813
0.9151698
0.9151582
0.9151465
0.9151345
0.9151224
0.9151101
0.9150976
0.9150849
0.915072
0.9150589
0.9150456
0.9150321
0.9150184
0.9150045
0.9149904
0.914976
0.9149615
0.9149465
0.9149304
0.9149111
0.9152705
0.9152645
0.9152554
0.9152459
0.915236
0.9152253
0.9152144
0.9152032
0.915192
0.9151805
0.9151689
0.9151571
0.9151451
0.915133
0.9151206
0.9151079
0.9150951
0.915082
0.9150686
0.915055
0.9150412
0.915027
0.9150126
0.9149978
0.9149827
0.9149673
0.9149515
0.9149353
0.9149179
0.9148968
0.9152758
0.9152698
0.9152606
0.915251
0.9152408
0.9152299
0.9152186
0.9152072
0.9151956
0.9151838
0.9151718
0.9151596
0.9151472
0.9151345
0.9151216
0.9151085
0.915095
0.9150812
0.9150671
0.9150527
0.9150378
0.9150226
0.915007
0.9149909
0.9149743
0.9149572
0.9149395
0.9149211
0.9149013
0.9148769
0.9152736
0.9152678
0.9152589
0.9152499
0.9152403
0.9152298
0.9152191
0.9152083
0.9151974
0.9151864
0.9151752
0.9151639
0.9151524
0.9151408
0.9151289
0.9151169
0.9151046
0.9150921
0.9150793
0.9150662
0.9150528
0.915039
0.9150249
0.9150104
0.9149954
0.9149799
0.9149638
0.9149469
0.9149285
0.9149054
0.915268
0.9152623
0.9152536
0.9152447
0.9152351
0.915225
0.9152146
0.9152043
0.9151939
0.9151834
0.9151729
0.9151623
0.9151516
0.9151409
0.91513
0.9151191
0.9151082
0.9150971
0.915086
0.9150749
0.9150637
0.9150524
0.9150411
0.9150297
0.9150183
0.9150069
0.9149953
0.9149833
0.9149701
0.914951
0.9152652
0.9152595
0.9152506
0.9152416
0.915232
0.9152216
0.9152109
0.9152002
0.9151894
0.9151785
0.9151675
0.9151563
0.9151451
0.9151336
0.915122
0.9151103
0.9150983
0.9150862
0.9150739
0.9150614
0.9150487
0.9150357
0.9150225
0.915009
0.9149953
0.9149813
0.9149669
0.914952
0.9149356
0.9149159
0.9152685
0.9152628
0.9152539
0.9152448
0.9152349
0.9152243
0.9152134
0.9152024
0.9151913
0.91518
0.9151687
0.9151572
0.9151455
0.9151337
0.9151217
0.9151096
0.9150972
0.9150846
0.9150717
0.9150586
0.9150453
0.9150316
0.9150177
0.9150034
0.9149888
0.9149738
0.9149583
0.9149422
0.9149243
0.914903
0.9150783
0.9150834
0.9150848
0.9150839
0.9150817
0.9150792
0.9150762
0.9150727
0.9150688
0.9150645
0.9150597
0.9150545
0.9150489
0.9150428
0.9150363
0.9150292
0.9150217
0.9150137
0.9150051
0.914996
0.9149862
0.9149759
0.9149649
0.9149532
0.9149408
0.9149277
0.9149138
0.9148987
0.9148824
0.9148618
0.9150786
0.9150837
0.9150853
0.9150849
0.9150834
0.9150811
0.9150784
0.9150752
0.9150717
0.9150678
0.9150636
0.9150589
0.9150539
0.9150486
0.915043
0.915037
0.9150308
0.9150241
0.9150172
0.9150098
0.9150022
0.9149942
0.9149858
0.9149772
0.9149682
0.9149588
0.9149492
0.9149389
0.914928
0.9149124
0.9150823
0.9150874
0.9150892
0.915089
0.9150877
0.9150859
0.9150835
0.9150806
0.9150775
0.9150742
0.9150705
0.9150665
0.9150622
0.9150577
0.9150529
0.9150478
0.9150423
0.9150365
0.9150305
0.9150241
0.9150174
0.9150103
0.915003
0.9149953
0.9149872
0.9149787
0.9149698
0.91496
0.9149484
0.9149343
0.9150827
0.9150877
0.9150892
0.9150887
0.915087
0.915085
0.9150826
0.9150796
0.9150763
0.9150728
0.9150688
0.9150645
0.9150599
0.915055
0.9150498
0.9150442
0.9150383
0.9150321
0.9150254
0.9150184
0.915011
0.9150033
0.9149951
0.9149866
0.9149776
0.9149683
0.9149585
0.9149481
0.9149368
0.914922
0.915113
0.9151178
0.9151193
0.9151191
0.9151177
0.9151158
0.9151134
0.9151107
0.9151077
0.9151044
0.9151008
0.9150968
0.9150924
0.9150878
0.9150828
0.9150774
0.9150717
0.9150656
0.9150591
0.9150523
0.9150451
0.9150374
0.9150294
0.9150209
0.9150119
0.9150024
0.9149925
0.9149817
0.9149701
0.9149548
0.915114
0.9151189
0.9151206
0.9151208
0.9151198
0.9151181
0.9151159
0.9151132
0.9151104
0.9151073
0.9151039
0.9151001
0.915096
0.9150918
0.9150872
0.9150824
0.9150774
0.9150721
0.9150666
0.9150608
0.9150547
0.9150484
0.9150419
0.9150351
0.9150281
0.9150208
0.9150134
0.9150054
0.9149968
0.9149848
0.9151158
0.9151207
0.9151225
0.9151228
0.9151219
0.9151202
0.9151181
0.9151156
0.9151129
0.9151099
0.9151066
0.9151029
0.915099
0.9150948
0.9150903
0.9150856
0.9150808
0.9150757
0.9150704
0.9150648
0.9150589
0.9150528
0.9150464
0.9150397
0.9150326
0.9150253
0.9150176
0.9150093
0.9149997
0.9149857
0.9151149
0.9151196
0.9151211
0.9151211
0.91512
0.9151183
0.9151161
0.9151137
0.9151109
0.9151078
0.9151043
0.9151005
0.9150964
0.9150921
0.9150875
0.9150825
0.9150773
0.9150716
0.9150657
0.9150594
0.9150529
0.915046
0.9150387
0.9150311
0.9150232
0.9150148
0.9150061
0.9149968
0.9149869
0.9149737
0.9151237
0.9151284
0.9151299
0.9151298
0.9151285
0.9151265
0.9151241
0.9151214
0.9151185
0.9151153
0.9151117
0.9151078
0.9151036
0.9150991
0.9150943
0.9150892
0.9150838
0.915078
0.9150718
0.9150653
0.9150585
0.9150512
0.9150436
0.9150355
0.915027
0.9150181
0.9150087
0.9149985
0.9149876
0.9149731
0.9151242
0.915129
0.9151307
0.9151309
0.9151299
0.9151282
0.9151261
0.9151237
0.915121
0.9151181
0.9151149
0.9151114
0.9151076
0.9151036
0.9150993
0.9150949
0.9150901
0.9150851
0.9150798
0.9150743
0.9150685
0.9150625
0.9150563
0.9150499
0.9150432
0.9150363
0.9150292
0.9150216
0.9150134
0.9150013
0.9151254
0.9151302
0.915132
0.9151323
0.9151313
0.9151296
0.9151273
0.9151248
0.915122
0.915119
0.9151158
0.9151123
0.9151085
0.9151044
0.9151001
0.9150955
0.9150907
0.9150856
0.9150804
0.9150749
0.9150692
0.9150632
0.915057
0.9150506
0.9150439
0.9150369
0.9150298
0.9150221
0.9150137
0.9150016
0.9151247
0.9151294
0.9151309
0.9151308
0.9151295
0.9151275
0.9151251
0.9151226
0.9151199
0.9151168
0.9151134
0.9151096
0.9151054
0.915101
0.9150962
0.9150911
0.9150858
0.9150801
0.9150741
0.9150678
0.9150612
0.9150542
0.9150468
0.915039
0.9150309
0.9150222
0.9150132
0.9150035
0.9149931
0.9149795
0.9151268
0.9151315
0.915133
0.9151329
0.9151317
0.9151297
0.9151272
0.9151245
0.9151215
0.9151183
0.9151147
0.9151108
0.9151066
0.9151022
0.9150974
0.9150924
0.915087
0.9150812
0.9150752
0.9150688
0.915062
0.9150549
0.9150474
0.9150395
0.9150311
0.9150223
0.9150131
0.9150032
0.9149925
0.9149785
0.9151271
0.9151319
0.9151336
0.9151338
0.9151328
0.9151312
0.9151291
0.9151266
0.9151238
0.9151208
0.9151175
0.9151139
0.91511
0.915106
0.9151017
0.9150972
0.9150925
0.9150875
0.9150822
0.9150767
0.915071
0.915065
0.9150588
0.9150524
0.9150458
0.9150389
0.9150318
0.9150241
0.9150157
0.9150036
0.9151269
0.9151317
0.9151334
0.9151336
0.9151325
0.9151308
0.9151287
0.9151263
0.9151236
0.9151206
0.9151174
0.9151139
0.9151101
0.9151061
0.9151019
0.9150974
0.9150927
0.9150877
0.9150824
0.9150769
0.9150712
0.9150652
0.915059
0.9150526
0.9150459
0.915039
0.9150318
0.9150242
0.9150158
0.9150036
0.9151265
0.9151311
0.9151326
0.9151325
0.9151313
0.9151292
0.9151269
0.9151242
0.9151212
0.9151179
0.9151143
0.9151105
0.9151064
0.915102
0.9150974
0.9150924
0.915087
0.9150813
0.9150752
0.9150688
0.9150621
0.9150549
0.9150474
0.9150395
0.9150312
0.9150224
0.9150132
0.9150033
0.9149926
0.9149786
0.9151255
0.9151302
0.9151316
0.9151316
0.9151304
0.9151283
0.9151258
0.9151232
0.9151205
0.9151175
0.9151141
0.9151104
0.9151063
0.9151019
0.9150972
0.9150921
0.9150867
0.915081
0.915075
0.9150686
0.9150619
0.9150549
0.9150475
0.9150397
0.9150315
0.9150228
0.9150138
0.9150041
0.9149936
0.91498
0.9151262
0.9151311
0.9151328
0.9151331
0.9151321
0.9151304
0.9151283
0.9151259
0.9151231
0.9151201
0.9151169
0.9151133
0.9151094
0.9151053
0.915101
0.9150964
0.9150916
0.9150865
0.9150812
0.9150756
0.9150698
0.9150638
0.9150576
0.9150511
0.9150444
0.9150373
0.9150302
0.9150224
0.9150139
0.9150017
0.9151253
0.91513
0.9151317
0.9151318
0.9151309
0.9151293
0.9151274
0.9151251
0.9151224
0.9151195
0.9151163
0.9151128
0.9151089
0.9151048
0.9151004
0.9150957
0.9150909
0.9150858
0.9150804
0.9150748
0.915069
0.915063
0.9150567
0.9150502
0.9150436
0.9150367
0.9150296
0.9150221
0.9150138
0.9150018
0.9151247
0.9151295
0.915131
0.9151309
0.9151296
0.9151275
0.915125
0.9151223
0.9151194
0.9151163
0.9151128
0.9151089
0.9151047
0.9151002
0.9150953
0.9150901
0.9150847
0.9150789
0.9150727
0.9150662
0.9150594
0.9150521
0.9150444
0.9150363
0.9150279
0.9150189
0.9150095
0.9149993
0.9149884
0.9149738
0.9151159
0.9151207
0.9151222
0.9151222
0.9151211
0.9151193
0.915117
0.9151145
0.9151117
0.9151086
0.915105
0.9151013
0.9150972
0.9150929
0.9150883
0.9150833
0.9150781
0.9150725
0.9150667
0.9150605
0.9150539
0.9150471
0.9150398
0.9150322
0.9150242
0.9150159
0.9150071
0.9149977
0.9149878
0.9149746
0.915117
0.915122
0.9151238
0.915124
0.9151229
0.9151212
0.9151191
0.9151166
0.9151138
0.9151107
0.9151074
0.9151038
0.9150998
0.9150957
0.9150913
0.9150867
0.9150818
0.9150768
0.9150715
0.9150659
0.91506
0.9150539
0.9150475
0.9150408
0.9150339
0.9150266
0.915019
0.9150107
0.9150013
0.914987
0.9151154
0.9151203
0.915122
0.9151222
0.915121
0.9151192
0.915117
0.9151142
0.9151113
0.9151081
0.9151047
0.915101
0.9150969
0.9150927
0.9150882
0.9150834
0.9150784
0.9150732
0.9150676
0.9150618
0.9150557
0.9150493
0.9150428
0.915036
0.915029
0.9150217
0.9150143
0.9150063
0.9149978
0.9149857
0.9151141
0.9151189
0.9151204
0.9151202
0.9151189
0.9151169
0.9151144
0.9151118
0.9151088
0.9151055
0.9151018
0.9150978
0.9150935
0.9150887
0.9150837
0.9150783
0.9150726
0.9150666
0.9150601
0.9150533
0.915046
0.9150384
0.9150303
0.9150218
0.9150129
0.9150034
0.9149935
0.9149827
0.9149711
0.9149558
0.9150834
0.9150884
0.9150899
0.9150894
0.9150877
0.9150856
0.9150832
0.9150802
0.9150769
0.9150733
0.9150694
0.9150651
0.9150605
0.9150555
0.9150503
0.9150447
0.9150387
0.9150325
0.9150258
0.9150188
0.9150114
0.9150037
0.9149955
0.914987
0.9149781
0.9149688
0.914959
0.9149486
0.9149372
0.9149224
0.9150831
0.9150882
0.9150899
0.9150898
0.9150885
0.9150866
0.9150841
0.9150812
0.915078
0.9150747
0.915071
0.915067
0.9150627
0.9150582
0.9150533
0.9150482
0.9150427
0.9150369
0.9150309
0.9150245
0.9150178
0.9150107
0.9150033
0.9149956
0.9149876
0.9149791
0.9149702
0.9149604
0.9149488
0.9149346
0.9150799
0.915085
0.9150866
0.915086
0.9150841
0.9150818
0.915079
0.9150757
0.9150721
0.9150683
0.915064
0.9150594
0.9150544
0.9150491
0.9150435
0.9150375
0.9150312
0.9150246
0.9150176
0.9150102
0.9150025
0.9149945
0.9149862
0.9149775
0.9149685
0.9149591
0.9149495
0.9149392
0.9149283
0.9149127
0.9150792
0.9150842
0.9150857
0.9150847
0.9150825
0.9150799
0.9150768
0.9150733
0.9150695
0.9150651
0.9150604
0.9150552
0.9150495
0.9150434
0.9150369
0.9150299
0.9150223
0.9150143
0.9150057
0.9149966
0.9149869
0.9149765
0.9149655
0.9149539
0.9149415
0.9149283
0.9149144
0.9148994
0.914883
0.9148626
0.9152339
0.91524
0.9152441
0.9152472
0.9152503
0.9152535
0.9152564
0.9152591
0.9152617
0.915264
0.9152663
0.9152684
0.9152704
0.9152723
0.9152741
0.9152758
0.9152773
0.9152787
0.91528
0.9152811
0.9152821
0.9152828
0.9152834
0.9152836
0.9152837
0.9152833
0.9152827
0.9152814
0.9152799
0.9152764
0.9152356
0.9152418
0.9152461
0.9152495
0.915253
0.9152566
0.9152602
0.9152637
0.9152669
0.91527
0.915273
0.915276
0.915279
0.915282
0.915285
0.915288
0.9152909
0.9152939
0.9152969
0.9152999
0.915303
0.9153061
0.9153093
0.9153124
0.9153156
0.9153189
0.9153221
0.9153252
0.9153279
0.9153295
0.9152399
0.9152461
0.9152506
0.9152541
0.9152579
0.915262
0.9152661
0.9152702
0.9152739
0.9152775
0.9152809
0.9152844
0.9152878
0.9152913
0.9152949
0.9152984
0.915302
0.9153058
0.9153095
0.9153134
0.9153174
0.9153215
0.9153258
0.9153302
0.9153348
0.9153395
0.9153445
0.9153497
0.9153542
0.9153578
0.915244
0.9152501
0.9152545
0.9152581
0.915262
0.9152662
0.9152702
0.9152741
0.915278
0.9152817
0.9152855
0.9152893
0.915293
0.9152969
0.9153007
0.9153047
0.9153087
0.9153129
0.9153171
0.9153215
0.915326
0.9153307
0.9153355
0.9153406
0.9153458
0.9153511
0.9153568
0.9153625
0.9153682
0.9153737
0.9153004
0.9153063
0.9153109
0.9153148
0.9153189
0.9153235
0.9153281
0.9153325
0.9153368
0.9153411
0.9153455
0.9153498
0.9153542
0.9153586
0.9153631
0.9153676
0.9153722
0.9153768
0.9153815
0.9153863
0.9153911
0.915396
0.915401
0.9154061
0.9154112
0.9154164
0.9154216
0.9154268
0.915432
0.9154373
0.9152988
0.9153049
0.9153095
0.9153135
0.9153178
0.9153226
0.9153274
0.9153322
0.9153369
0.9153414
0.9153461
0.9153508
0.9153556
0.9153603
0.9153652
0.9153701
0.9153751
0.9153803
0.9153856
0.915391
0.9153965
0.9154022
0.9154081
0.9154141
0.9154204
0.9154267
0.9154333
0.9154399
0.9154466
0.9154533
0.9152999
0.915306
0.9153106
0.9153146
0.915319
0.9153239
0.9153289
0.9153338
0.9153385
0.9153431
0.9153478
0.9153525
0.9153574
0.9153623
0.9153674
0.9153725
0.9153778
0.915383
0.9153884
0.9153939
0.9153995
0.9154052
0.9154112
0.9154173
0.9154235
0.91543
0.9154366
0.9154434
0.9154506
0.9154576
0.915304
0.9153099
0.9153145
0.9153186
0.915323
0.9153279
0.9153328
0.9153376
0.9153423
0.9153471
0.915352
0.915357
0.915362
0.9153672
0.9153724
0.9153778
0.9153834
0.9153891
0.915395
0.9154011
0.9154074
0.9154139
0.9154206
0.9154275
0.9154347
0.9154422
0.91545
0.9154579
0.9154658
0.9154737
0.9153188
0.9153247
0.9153292
0.9153333
0.9153378
0.9153429
0.9153481
0.9153532
0.9153582
0.9153631
0.9153682
0.9153732
0.9153784
0.9153836
0.9153889
0.9153943
0.9153998
0.9154054
0.9154112
0.9154171
0.9154231
0.9154293
0.9154357
0.9154422
0.9154488
0.9154556
0.9154626
0.9154696
0.9154768
0.915484
0.9153175
0.9153235
0.9153282
0.9153322
0.9153368
0.915342
0.9153473
0.9153524
0.9153573
0.9153623
0.9153673
0.9153725
0.9153777
0.915383
0.9153884
0.9153938
0.9153994
0.9154052
0.9154111
0.9154172
0.9154235
0.9154299
0.9154365
0.9154432
0.9154502
0.9154573
0.9154647
0.9154722
0.9154799
0.9154879
0.9153176
0.9153235
0.9153281
0.9153322
0.9153367
0.9153419
0.9153472
0.9153524
0.9153574
0.9153623
0.9153674
0.9153725
0.9153778
0.9153831
0.9153886
0.9153943
0.9154
0.9154059
0.9154119
0.915418
0.9154243
0.9154308
0.9154375
0.9154443
0.9154513
0.9154586
0.915466
0.9154735
0.9154814
0.9154895
0.9153204
0.9153263
0.9153309
0.915335
0.9153395
0.9153448
0.91535
0.9153551
0.9153601
0.9153651
0.9153702
0.9153754
0.9153806
0.9153861
0.9153916
0.9153973
0.9154031
0.9154091
0.9154151
0.9154214
0.9154277
0.9154343
0.9154411
0.9154481
0.9154553
0.9154628
0.9154705
0.9154782
0.9154862
0.915494
0.9153217
0.9153275
0.915332
0.9153361
0.9153407
0.9153459
0.9153511
0.9153563
0.9153615
0.9153666
0.9153717
0.9153769
0.9153822
0.9153875
0.9153929
0.9153985
0.9154042
0.91541
0.915416
0.9154221
0.9154284
0.9154349
0.9154416
0.9154484
0.9154554
0.9154626
0.9154701
0.9154776
0.9154853
0.9154928
0.91532
0.915326
0.9153306
0.9153347
0.9153392
0.9153443
0.9153496
0.9153548
0.9153599
0.9153649
0.9153701
0.9153753
0.9153806
0.915386
0.9153915
0.9153971
0.9154028
0.9154086
0.9154147
0.9154208
0.9154272
0.9154337
0.9154404
0.9154472
0.9154543
0.9154615
0.915469
0.9154766
0.9154845
0.9154928
0.9153202
0.9153261
0.9153307
0.9153349
0.9153395
0.9153448
0.91535
0.9153551
0.9153601
0.9153651
0.9153702
0.9153754
0.9153806
0.9153859
0.9153913
0.9153968
0.9154025
0.9154084
0.9154145
0.9154206
0.915427
0.9154335
0.9154402
0.915447
0.9154541
0.9154614
0.9154688
0.9154765
0.9154844
0.9154926
0.9153216
0.9153274
0.915332
0.9153361
0.9153406
0.9153458
0.915351
0.9153562
0.9153615
0.9153666
0.9153718
0.915377
0.9153822
0.9153875
0.9153929
0.9153984
0.9154041
0.91541
0.9154159
0.9154221
0.9154284
0.9154348
0.9154415
0.9154483
0.9154553
0.9154625
0.9154699
0.9154774
0.915485
0.9154926
0.915321
0.9153269
0.9153314
0.9153355
0.9153401
0.9153455
0.9153508
0.9153559
0.9153608
0.9153656
0.9153706
0.9153757
0.9153809
0.9153863
0.9153918
0.9153975
0.9154033
0.9154093
0.9154154
0.9154216
0.9154281
0.9154347
0.9154414
0.9154484
0.9154557
0.9154631
0.9154708
0.9154785
0.9154865
0.9154943
0.9153184
0.9153244
0.915329
0.9153331
0.9153376
0.9153427
0.9153478
0.9153528
0.9153578
0.9153628
0.9153678
0.9153729
0.9153782
0.9153835
0.915389
0.9153946
0.9154004
0.9154062
0.9154122
0.9154184
0.9154247
0.9154312
0.9154379
0.9154447
0.9154518
0.915459
0.9154665
0.9154741
0.915482
0.9154901
0.9153186
0.9153247
0.9153293
0.9153334
0.9153379
0.9153428
0.9153477
0.9153526
0.9153575
0.9153624
0.9153674
0.9153725
0.9153777
0.915383
0.9153885
0.915394
0.9153997
0.9154055
0.9154114
0.9154176
0.9154239
0.9154304
0.915437
0.9154438
0.9154508
0.915458
0.9154653
0.9154728
0.9154805
0.9154885
0.9153196
0.9153255
0.91533
0.9153341
0.9153386
0.9153438
0.915349
0.9153541
0.915359
0.9153639
0.9153689
0.9153739
0.915379
0.9153842
0.9153895
0.915395
0.9154005
0.9154061
0.9154118
0.9154176
0.9154236
0.9154298
0.9154361
0.9154426
0.9154492
0.915456
0.915463
0.91547
0.9154771
0.9154844
0.9153045
0.9153105
0.9153151
0.9153191
0.9153235
0.9153284
0.9153334
0.9153382
0.915343
0.9153478
0.9153527
0.9153577
0.9153627
0.9153679
0.9153732
0.9153786
0.9153841
0.9153898
0.9153956
0.9154017
0.9154079
0.9154143
0.915421
0.915428
0.9154352
0.9154426
0.9154504
0.9154583
0.9154663
0.9154742
0.9153008
0.9153068
0.9153114
0.9153154
0.9153198
0.9153246
0.9153294
0.9153343
0.915339
0.9153436
0.9153483
0.9153531
0.915358
0.9153629
0.9153678
0.915373
0.9153782
0.9153835
0.9153889
0.9153943
0.9154
0.9154058
0.9154117
0.9154178
0.915424
0.9154304
0.915437
0.9154437
0.9154509
0.9154579
0.9152994
0.9153055
0.9153101
0.915314
0.9153182
0.915323
0.9153278
0.9153327
0.9153375
0.9153421
0.9153467
0.9153513
0.915356
0.9153608
0.9153656
0.9153706
0.9153756
0.9153808
0.9153861
0.9153915
0.9153971
0.9154028
0.9154087
0.9154147
0.9154209
0.9154273
0.9154338
0.9154404
0.9154471
0.9154538
0.9153009
0.9153069
0.9153114
0.9153153
0.9153194
0.915324
0.9153286
0.9153331
0.9153374
0.9153417
0.915346
0.9153504
0.9153547
0.9153592
0.9153636
0.9153681
0.9153727
0.9153773
0.915382
0.9153868
0.9153917
0.9153966
0.9154017
0.9154067
0.9154119
0.9154171
0.9154223
0.9154275
0.9154327
0.915438
0.9152442
0.9152503
0.9152547
0.9152583
0.9152622
0.9152663
0.9152704
0.9152743
0.9152782
0.9152819
0.9152858
0.9152895
0.9152933
0.9152972
0.9153011
0.915305
0.9153091
0.9153133
0.9153176
0.915322
0.9153265
0.9153312
0.915336
0.915341
0.9153462
0.9153515
0.9153571
0.9153628
0.9153686
0.915374
0.9152401
0.9152463
0.9152508
0.9152543
0.9152581
0.9152621
0.9152663
0.9152704
0.9152742
0.9152778
0.9152812
0.9152847
0.9152882
0.9152917
0.9152952
0.9152988
0.9153024
0.9153061
0.91531
0.9153139
0.9153179
0.9153221
0.9153263
0.9153308
0.9153353
0.9153401
0.915345
0.9153502
0.9153548
0.9153584
0.9152351
0.9152413
0.9152456
0.9152489
0.9152524
0.9152561
0.9152599
0.9152636
0.9152669
0.91527
0.9152731
0.9152761
0.9152791
0.9152821
0.9152851
0.9152881
0.9152911
0.9152941
0.9152971
0.9153002
0.9153033
0.9153064
0.9153096
0.9153128
0.915316
0.9153192
0.9153225
0.9153256
0.9153284
0.9153299
0.9152339
0.9152399
0.9152441
0.9152471
0.9152502
0.9152535
0.9152564
0.9152592
0.9152618
0.9152642
0.9152665
0.9152686
0.9152707
0.9152726
0.9152744
0.9152761
0.9152776
0.9152791
0.9152803
0.9152815
0.9152824
0.9152831
0.9152837
0.9152839
0.9152839
0.9152836
0.915283
0.9152816
0.91528
0.9152766
0.9154448
0.9154497
0.9154542
0.9154584
0.9154627
0.9154671
0.9154716
0.9154761
0.9154807
0.9154853
0.91549
0.9154947
0.9154995
0.9155043
0.9155093
0.9155145
0.9155197
0.9155252
0.9155308
0.9155365
0.9155425
0.9155487
0.915555
0.9155616
0.9155685
0.9155755
0.9155828
0.9155902
0.9155975
0.9156037
0.915445
0.9154502
0.9154548
0.9154591
0.9154635
0.915468
0.9154725
0.915477
0.9154816
0.9154862
0.9154907
0.9154953
0.9155
0.9155047
0.9155096
0.9155146
0.9155197
0.9155249
0.9155302
0.9155357
0.9155413
0.9155471
0.915553
0.9155591
0.9155653
0.9155716
0.9155781
0.9155845
0.9155906
0.9155949
0.9154464
0.9154517
0.9154562
0.9154605
0.9154649
0.9154693
0.9154738
0.9154782
0.9154826
0.915487
0.9154914
0.9154959
0.9155004
0.9155051
0.9155098
0.9155147
0.9155197
0.9155249
0.9155302
0.9155356
0.9155412
0.915547
0.9155529
0.915559
0.9155652
0.9155716
0.9155781
0.9155845
0.9155902
0.9155934
0.9154477
0.9154527
0.9154571
0.9154612
0.9154655
0.9154699
0.9154743
0.9154787
0.9154832
0.9154876
0.9154921
0.9154967
0.9155014
0.9155062
0.9155111
0.9155162
0.9155214
0.9155268
0.9155323
0.915538
0.9155439
0.91555
0.9155563
0.9155628
0.9155696
0.9155765
0.9155837
0.9155909
0.9155978
0.9156028
0.9154698
0.9154747
0.915479
0.9154829
0.9154869
0.9154909
0.9154949
0.9154988
0.9155028
0.9155068
0.9155108
0.915515
0.9155192
0.9155235
0.9155279
0.9155324
0.9155371
0.9155419
0.9155469
0.915552
0.9155572
0.9155627
0.9155683
0.9155741
0.9155801
0.9155864
0.9155927
0.9155992
0.9156054
0.9156101
0.9154698
0.9154749
0.9154793
0.9154834
0.9154874
0.9154915
0.9154955
0.9154995
0.9155036
0.9155076
0.9155116
0.9155158
0.9155199
0.9155242
0.9155286
0.915533
0.9155376
0.9155423
0.9155472
0.9155522
0.9155573
0.9155625
0.9155679
0.9155735
0.9155792
0.915585
0.915591
0.9155969
0.9156024
0.9156061
0.9154705
0.9154756
0.91548
0.915484
0.915488
0.9154921
0.9154961
0.9155001
0.9155042
0.9155081
0.9155121
0.9155162
0.9155204
0.9155246
0.915529
0.9155334
0.915538
0.9155427
0.9155475
0.9155525
0.9155576
0.9155629
0.9155683
0.9155739
0.9155797
0.9155857
0.9155917
0.9155978
0.9156034
0.9156071
0.915472
0.9154768
0.9154811
0.915485
0.9154889
0.915493
0.915497
0.9155011
0.9155051
0.9155092
0.9155133
0.9155175
0.9155219
0.9155263
0.9155309
0.9155355
0.9155404
0.9155454
0.9155505
0.9155558
0.9155613
0.9155669
0.9155728
0.9155788
0.915585
0.9155914
0.915598
0.9156047
0.9156111
0.9156157
0.9154822
0.915487
0.9154912
0.9154951
0.9154991
0.9155031
0.9155071
0.9155111
0.9155152
0.9155193
0.9155234
0.9155275
0.9155318
0.9155362
0.9155407
0.9155453
0.9155501
0.915555
0.9155601
0.9155653
0.9155708
0.9155764
0.9155821
0.9155881
0.9155943
0.9156007
0.9156073
0.9156139
0.9156203
0.9156251
0.9154816
0.9154866
0.915491
0.9154949
0.9154989
0.915503
0.915507
0.915511
0.915515
0.9155189
0.9155229
0.915527
0.9155312
0.9155354
0.9155398
0.9155442
0.9155488
0.9155534
0.9155583
0.9155632
0.9155683
0.9155735
0.9155789
0.9155844
0.9155901
0.9155959
0.9156018
0.9156077
0.915613
0.9156167
0.9154818
0.9154868
0.9154912
0.9154952
0.9154992
0.9155032
0.9155072
0.9155112
0.9155152
0.9155192
0.9155231
0.9155272
0.9155313
0.9155356
0.9155399
0.9155443
0.9155489
0.9155536
0.9155584
0.9155633
0.9155684
0.9155736
0.915579
0.9155845
0.9155902
0.915596
0.9156019
0.9156078
0.9156133
0.915617
0.9154829
0.9154876
0.9154918
0.9154957
0.9154996
0.9155037
0.9155076
0.9155116
0.9155156
0.9155197
0.9155238
0.915528
0.9155322
0.9155366
0.9155411
0.9155458
0.9155506
0.9155555
0.9155606
0.9155659
0.9155713
0.9155769
0.9155827
0.9155887
0.9155949
0.9156013
0.9156079
0.9156146
0.9156209
0.9156256
0.9154849
0.9154896
0.9154938
0.9154977
0.9155016
0.9155057
0.9155097
0.9155137
0.9155178
0.9155219
0.915526
0.9155301
0.9155344
0.9155388
0.9155433
0.915548
0.9155528
0.9155577
0.9155628
0.9155681
0.9155735
0.9155791
0.9155849
0.9155909
0.9155971
0.9156035
0.9156101
0.9156168
0.9156232
0.9156279
0.9154839
0.9154889
0.9154932
0.9154972
0.9155012
0.9155053
0.9155093
0.9155133
0.9155174
0.9155214
0.9155253
0.9155294
0.9155336
0.9155379
0.9155422
0.9155467
0.9155513
0.915556
0.9155608
0.9155658
0.9155709
0.9155761
0.9155815
0.9155871
0.9155928
0.9155986
0.9156045
0.9156105
0.9156159
0.9156196
0.915484
0.915489
0.9154933
0.9154973
0.9155013
0.9155053
0.9155093
0.9155133
0.9155173