/*--------------------------------*- C++ -*----------------------------------*\
| =========                 |                                                 |
| \\      /  F ield         | OpenFOAM: The Open Source CFD Toolbox           |
|  \\    /   O peration     | Version:  4.0                                   |
|   \\  /    A nd           | Web:      www.OpenFOAM.org                      |
|    \\/     M anipulation  |                                                 |
\*---------------------------------------------------------------------------*/
FoamFile
{
    version     2.0;
    format      ascii;
    class       volScalarField;
    location    "60/air";
    object      rho;
}
// * * * * * * * * * * * * * * * * * * * * * * * * * * * * * * * * * * * * * //

dimensions      [1 -3 0 0 0 0 0];

internalField   nonuniform List<scalar> 
39776
(
0.9135378
0.9136172
0.9136743
0.913717
0.9137496
0.9137751
0.9137952
0.9138114
0.9138244
0.9138349
0.9138434
0.9138503
0.9138559
0.9138605
0.9138641
0.913867
0.9138691
0.9138706
0.9138715
0.9138717
0.9138709
0.913869
0.9138654
0.9138593
0.9138496
0.9138341
0.9138097
0.9137713
0.9137107
0.9136146
0.913543
0.9136296
0.9136931
0.9137416
0.9137795
0.9138097
0.9138341
0.9138541
0.9138706
0.9138842
0.9138955
0.9139049
0.9139128
0.9139192
0.9139246
0.9139289
0.9139324
0.913935
0.9139368
0.9139377
0.9139375
0.913936
0.9139327
0.9139266
0.9139166
0.9139006
0.9138754
0.913836
0.9137745
0.913678
0.9135441
0.9136305
0.913694
0.9137423
0.9137802
0.9138103
0.9138347
0.9138547
0.9138711
0.9138847
0.913896
0.9139054
0.9139132
0.9139197
0.913925
0.9139293
0.9139327
0.9139353
0.9139371
0.9139379
0.9139377
0.9139361
0.9139326
0.9139264
0.9139162
0.9139
0.9138746
0.913835
0.9137735
0.9136777
0.9135414
0.9136204
0.9136772
0.9137196
0.9137521
0.9137775
0.9137976
0.9138137
0.9138266
0.9138371
0.9138456
0.9138526
0.9138582
0.9138627
0.9138664
0.9138693
0.9138715
0.913873
0.9138739
0.9138741
0.9138734
0.9138715
0.913868
0.913862
0.9138524
0.9138372
0.9138133
0.9137758
0.9137167
0.9136233
0.9135434
0.913622
0.9136785
0.9137207
0.913753
0.9137782
0.9137982
0.9138142
0.9138271
0.9138375
0.913846
0.9138529
0.9138585
0.913863
0.9138666
0.9138695
0.9138716
0.9138732
0.9138741
0.9138743
0.9138736
0.9138717
0.9138682
0.9138623
0.9138528
0.9138378
0.9138141
0.9137769
0.9137183
0.9136256
0.9135476
0.9136333
0.9136963
0.9137442
0.9137817
0.9138117
0.9138359
0.9138557
0.913872
0.9138855
0.9138967
0.9139061
0.9139138
0.9139202
0.9139255
0.9139298
0.9139332
0.9139357
0.9139374
0.9139383
0.913938
0.9139364
0.9139329
0.9139268
0.9139166
0.9139005
0.9138753
0.9138361
0.9137752
0.9136805
0.9135481
0.9136337
0.9136966
0.9137445
0.913782
0.9138119
0.9138361
0.9138559
0.9138722
0.9138857
0.9138969
0.9139062
0.9139139
0.9139203
0.9139256
0.9139298
0.9139332
0.9139358
0.9139375
0.9139383
0.9139381
0.9139365
0.913933
0.9139268
0.9139166
0.9139005
0.9138752
0.913836
0.9137752
0.9136806
0.913545
0.9136233
0.9136796
0.9137217
0.9137539
0.9137791
0.913799
0.9138149
0.9138278
0.9138382
0.9138466
0.9138535
0.9138591
0.9138636
0.9138672
0.91387
0.9138722
0.9138737
0.9138746
0.9138748
0.9138741
0.9138722
0.9138687
0.9138628
0.9138533
0.9138382
0.9138146
0.9137774
0.9137189
0.9136264
0.9135459
0.913624
0.9136802
0.9137222
0.9137543
0.9137794
0.9137993
0.9138152
0.913828
0.9138383
0.9138468
0.9138536
0.9138592
0.9138637
0.9138673
0.9138701
0.9138723
0.9138738
0.9138747
0.9138749
0.9138742
0.9138723
0.9138688
0.9138629
0.9138534
0.9138384
0.9138148
0.9137777
0.9137193
0.913627
0.9135497
0.913635
0.9136977
0.9137454
0.9137827
0.9138125
0.9138366
0.9138563
0.9138725
0.913886
0.9138971
0.9139064
0.9139141
0.9139205
0.9139257
0.91393
0.9139333
0.9139359
0.9139376
0.9139384
0.9139382
0.9139366
0.9139331
0.9139269
0.9139168
0.9139007
0.9138756
0.9138365
0.9137758
0.9136815
0.91355
0.9136352
0.9136978
0.9137455
0.9137828
0.9138126
0.9138367
0.9138564
0.9138726
0.913886
0.9138972
0.9139064
0.9139141
0.9139205
0.9139258
0.91393
0.9139334
0.9139359
0.9139376
0.9139385
0.9139382
0.9139366
0.9139331
0.9139269
0.9139168
0.9139007
0.9138756
0.9138365
0.9137758
0.9136816
0.9135466
0.9136246
0.9136807
0.9137226
0.9137547
0.9137797
0.9137996
0.9138155
0.9138283
0.9138386
0.913847
0.9138539
0.9138594
0.9138639
0.9138675
0.9138703
0.9138725
0.913874
0.9138749
0.9138751
0.9138744
0.9138725
0.913869
0.9138631
0.9138537
0.9138386
0.913815
0.913778
0.9137197
0.9136275
0.9135469
0.9136248
0.9136809
0.9137227
0.9137548
0.9137798
0.9137997
0.9138155
0.9138283
0.9138387
0.9138471
0.9138539
0.9138594
0.9138639
0.9138675
0.9138704
0.9138725
0.913874
0.9138749
0.9138751
0.9138744
0.9138725
0.913869
0.9138632
0.9138537
0.9138387
0.9138151
0.913778
0.9137198
0.9136276
0.9135505
0.9136356
0.9136981
0.9137458
0.913783
0.9138128
0.9138368
0.9138565
0.9138727
0.9138861
0.9138972
0.9139065
0.9139142
0.9139206
0.9139258
0.91393
0.9139334
0.913936
0.9139377
0.9139385
0.9139382
0.9139366
0.9139331
0.9139269
0.9139168
0.9139007
0.9138756
0.9138365
0.9137759
0.9136818
0.9135505
0.9136356
0.9136981
0.9137458
0.913783
0.9138128
0.9138368
0.9138565
0.9138727
0.9138861
0.9138972
0.9139065
0.9139142
0.9139206
0.9139258
0.91393
0.9139334
0.913936
0.9139377
0.9139385
0.9139382
0.9139366
0.9139331
0.9139269
0.9139168
0.9139007
0.9138756
0.9138365
0.9137759
0.9136818
0.9135469
0.9136248
0.9136809
0.9137227
0.9137548
0.9137798
0.9137997
0.9138155
0.9138283
0.9138387
0.9138471
0.9138539
0.9138594
0.9138639
0.9138675
0.9138704
0.9138725
0.913874
0.9138749
0.9138751
0.9138744
0.9138725
0.913869
0.9138632
0.9138537
0.9138387
0.9138151
0.913778
0.9137198
0.9136276
0.9135466
0.9136246
0.9136807
0.9137226
0.9137547
0.9137797
0.9137996
0.9138155
0.9138283
0.9138386
0.913847
0.9138539
0.9138594
0.9138639
0.9138675
0.9138703
0.9138725
0.913874
0.9138749
0.9138751
0.9138744
0.9138725
0.913869
0.9138631
0.9138537
0.9138386
0.913815
0.913778
0.9137197
0.9136274
0.91355
0.9136352
0.9136978
0.9137455
0.9137828
0.9138126
0.9138367
0.9138564
0.9138726
0.913886
0.9138972
0.9139064
0.9139141
0.9139205
0.9139258
0.91393
0.9139334
0.9139359
0.9139376
0.9139385
0.9139382
0.9139366
0.9139331
0.9139269
0.9139168
0.9139007
0.9138756
0.9138365
0.9137758
0.9136816
0.9135497
0.913635
0.9136977
0.9137454
0.9137827
0.9138125
0.9138366
0.9138563
0.9138725
0.913886
0.9138971
0.9139064
0.9139141
0.9139205
0.9139257
0.91393
0.9139333
0.9139359
0.9139376
0.9139384
0.9139382
0.9139366
0.9139331
0.9139269
0.9139168
0.9139007
0.9138756
0.9138365
0.9137758
0.9136815
0.9135459
0.913624
0.9136802
0.9137222
0.9137543
0.9137794
0.9137993
0.9138152
0.913828
0.9138383
0.9138468
0.9138536
0.9138592
0.9138637
0.9138673
0.9138701
0.9138723
0.9138738
0.9138747
0.9138749
0.9138741
0.9138723
0.9138688
0.9138629
0.9138534
0.9138384
0.9138148
0.9137777
0.9137193
0.913627
0.913545
0.9136233
0.9136796
0.9137217
0.9137539
0.9137791
0.913799
0.9138149
0.9138278
0.9138382
0.9138466
0.9138535
0.9138591
0.9138636
0.9138672
0.91387
0.9138722
0.9138737
0.9138746
0.9138748
0.9138741
0.9138722
0.9138687
0.9138628
0.9138533
0.9138382
0.9138145
0.9137773
0.9137188
0.9136263
0.9135481
0.9136337
0.9136966
0.9137445
0.913782
0.9138119
0.9138361
0.9138559
0.9138722
0.9138857
0.9138969
0.9139062
0.9139139
0.9139203
0.9139256
0.9139298
0.9139332
0.9139358
0.9139375
0.9139383
0.9139381
0.9139365
0.913933
0.9139268
0.9139166
0.9139005
0.9138752
0.913836
0.9137751
0.9136805
0.9135476
0.9136333
0.9136963
0.9137442
0.9137818
0.9138117
0.9138359
0.9138557
0.913872
0.9138855
0.9138967
0.9139061
0.9139138
0.9139202
0.9139255
0.9139298
0.9139332
0.9139357
0.9139374
0.9139383
0.913938
0.9139364
0.9139329
0.9139268
0.9139166
0.9139005
0.9138753
0.9138361
0.9137752
0.9136806
0.9135435
0.913622
0.9136785
0.9137207
0.913753
0.9137782
0.9137982
0.9138142
0.9138271
0.9138375
0.913846
0.9138529
0.9138585
0.913863
0.9138666
0.9138695
0.9138716
0.9138732
0.9138741
0.9138743
0.9138736
0.9138717
0.9138682
0.9138623
0.9138528
0.9138378
0.9138141
0.9137769
0.9137184
0.9136257
0.9135415
0.9136204
0.9136772
0.9137196
0.9137521
0.9137775
0.9137976
0.9138137
0.9138266
0.9138371
0.9138456
0.9138526
0.9138582
0.9138627
0.9138664
0.9138693
0.9138715
0.913873
0.9138739
0.9138741
0.9138734
0.9138715
0.913868
0.913862
0.9138524
0.9138372
0.9138133
0.9137758
0.9137168
0.9136234
0.9135441
0.9136305
0.913694
0.9137423
0.9137802
0.9138103
0.9138347
0.9138547
0.9138711
0.9138847
0.913896
0.9139054
0.9139132
0.9139197
0.913925
0.9139293
0.9139327
0.9139353
0.9139371
0.9139379
0.9139377
0.9139361
0.9139326
0.9139265
0.9139163
0.9139
0.9138746
0.9138351
0.9137736
0.9136779
0.913543
0.9136296
0.9136932
0.9137416
0.9137795
0.9138097
0.9138341
0.9138541
0.9138706
0.9138842
0.9138955
0.9139049
0.9139128
0.9139192
0.9139246
0.9139289
0.9139324
0.913935
0.9139368
0.9139377
0.9139375
0.913936
0.9139327
0.9139266
0.9139167
0.9139007
0.9138755
0.9138361
0.9137746
0.9136782
0.9135378
0.9136172
0.9136744
0.913717
0.9137496
0.9137751
0.9137952
0.9138114
0.9138244
0.9138349
0.9138434
0.9138503
0.9138559
0.9138605
0.9138641
0.913867
0.9138691
0.9138707
0.9138715
0.9138717
0.9138709
0.913869
0.9138654
0.9138594
0.9138496
0.9138342
0.9138098
0.9137715
0.9137109
0.9136149
0.9134902
0.9135289
0.9135661
0.9136008
0.9136321
0.9136599
0.9136842
0.9137051
0.9137229
0.9137378
0.9137503
0.9137605
0.9137686
0.913775
0.9137796
0.9137825
0.9137838
0.9137834
0.913781
0.9137764
0.9137691
0.9137587
0.9137444
0.9137252
0.9137001
0.9136677
0.9136265
0.9135749
0.9135116
0.913436
0.9134975
0.913548
0.9135962
0.9136409
0.9136814
0.9137174
0.913749
0.9137765
0.9138001
0.9138203
0.9138375
0.9138519
0.9138638
0.9138736
0.9138812
0.9138869
0.9138905
0.9138922
0.9138916
0.9138884
0.9138823
0.9138725
0.9138583
0.9138386
0.913812
0.9137771
0.9137321
0.9136754
0.9136054
0.9135218
0.9134987
0.9135491
0.9135974
0.9136421
0.9136826
0.9137186
0.9137502
0.9137776
0.9138012
0.9138214
0.9138385
0.9138529
0.9138648
0.9138745
0.913882
0.9138876
0.9138912
0.9138926
0.9138919
0.9138885
0.9138821
0.913872
0.9138574
0.9138373
0.9138103
0.9137751
0.9137299
0.9136732
0.9136036
0.913521
0.9134939
0.9135327
0.9135699
0.9136045
0.9136359
0.9136637
0.9136879
0.9137088
0.9137266
0.9137416
0.913754
0.9137642
0.9137724
0.9137788
0.9137835
0.9137865
0.9137878
0.9137874
0.9137851
0.9137806
0.9137735
0.9137633
0.9137492
0.9137303
0.9137057
0.913674
0.9136337
0.9135834
0.9135219
0.9134486
0.913496
0.9135345
0.9135716
0.913606
0.9136372
0.9136648
0.9136889
0.9137097
0.9137274
0.9137423
0.9137547
0.9137648
0.913773
0.9137793
0.9137839
0.913787
0.9137883
0.913788
0.9137857
0.9137813
0.9137744
0.9137643
0.9137504
0.9137318
0.9137075
0.9136763
0.9136365
0.9135869
0.9135261
0.9134537
0.9135023
0.9135524
0.9136003
0.9136447
0.913685
0.9137207
0.9137521
0.9137793
0.9138027
0.9138228
0.9138398
0.913854
0.9138659
0.9138755
0.913883
0.9138885
0.9138921
0.9138936
0.9138929
0.9138896
0.9138833
0.9138734
0.9138591
0.9138392
0.9138127
0.9137779
0.9137333
0.9136772
0.9136083
0.9135264
0.9135029
0.9135529
0.9136008
0.9136452
0.9136854
0.9137211
0.9137524
0.9137796
0.913803
0.9138231
0.91384
0.9138543
0.9138661
0.9138757
0.9138832
0.9138887
0.9138923
0.9138937
0.913893
0.9138896
0.9138833
0.9138734
0.913859
0.9138391
0.9138124
0.9137776
0.9137329
0.9136768
0.913608
0.9135262
0.9134976
0.9135361
0.9135731
0.9136074
0.9136385
0.9136661
0.9136902
0.9137109
0.9137285
0.9137434
0.9137558
0.9137659
0.913774
0.9137803
0.9137849
0.9137879
0.9137893
0.9137889
0.9137866
0.9137822
0.9137752
0.913765
0.9137511
0.9137325
0.9137081
0.9136767
0.9136369
0.9135872
0.9135263
0.9134538
0.9134986
0.913537
0.9135738
0.9136081
0.9136391
0.9136666
0.9136906
0.9137113
0.9137289
0.9137437
0.913756
0.9137661
0.9137742
0.9137805
0.9137851
0.9137881
0.9137894
0.913789
0.9137868
0.9137823
0.9137753
0.9137652
0.9137513
0.9137328
0.9137085
0.9136772
0.9136375
0.913588
0.9135273
0.9134549
0.9135046
0.9135545
0.9136022
0.9136464
0.9136864
0.913722
0.9137532
0.9137803
0.9138036
0.9138236
0.9138405
0.9138547
0.9138664
0.913876
0.9138835
0.913889
0.9138925
0.9138939
0.9138932
0.9138899
0.9138836
0.9138736
0.9138593
0.9138395
0.9138129
0.9137782
0.9137337
0.9136777
0.9136091
0.9135275
0.9135049
0.9135547
0.9136024
0.9136466
0.9136866
0.9137222
0.9137534
0.9137804
0.9138038
0.9138237
0.9138406
0.9138548
0.9138665
0.9138761
0.9138835
0.913889
0.9138926
0.913894
0.9138933
0.9138899
0.9138836
0.9138737
0.9138593
0.9138395
0.913813
0.9137782
0.9137337
0.9136777
0.9136091
0.9135275
0.9134993
0.9135377
0.9135745
0.9136087
0.9136397
0.9136672
0.9136911
0.9137118
0.9137294
0.9137441
0.9137565
0.9137665
0.9137746
0.9137809
0.9137855
0.9137885
0.9137898
0.9137894
0.9137872
0.9137827
0.9137757
0.9137656
0.9137517
0.9137331
0.9137088
0.9136776
0.9136379
0.9135883
0.9135276
0.9134552
0.9134996
0.9135379
0.9135747
0.9136089
0.9136399
0.9136673
0.9136913
0.9137119
0.9137294
0.9137442
0.9137565
0.9137666
0.9137747
0.913781
0.9137855
0.9137885
0.9137898
0.9137895
0.9137872
0.9137828
0.9137758
0.9137657
0.9137518
0.9137332
0.9137089
0.9136777
0.913638
0.9135884
0.9135278
0.9134555
0.9135054
0.9135552
0.9136028
0.9136469
0.9136869
0.9137224
0.9137536
0.9137806
0.9138039
0.9138238
0.9138407
0.9138549
0.9138666
0.9138762
0.9138836
0.9138891
0.9138926
0.9138941
0.9138933
0.91389
0.9138837
0.9138738
0.9138594
0.9138396
0.9138131
0.9137784
0.9137338
0.9136779
0.9136093
0.9135278
0.9135054
0.9135552
0.9136028
0.9136469
0.9136869
0.9137224
0.9137536
0.9137806
0.9138039
0.9138238
0.9138407
0.9138549
0.9138666
0.9138762
0.9138836
0.9138891
0.9138926
0.9138941
0.9138933
0.91389
0.9138837
0.9138738
0.9138594
0.9138396
0.9138131
0.9137784
0.9137338
0.9136779
0.9136094
0.9135278
0.9134996
0.9135379
0.9135747
0.9136089
0.9136399
0.9136673
0.9136913
0.9137119
0.9137294
0.9137442
0.9137565
0.9137666
0.9137747
0.913781
0.9137855
0.9137885
0.9137898
0.9137895
0.9137872
0.9137828
0.9137758
0.9137657
0.9137518
0.9137332
0.9137089
0.9136777
0.913638
0.9135884
0.9135278
0.9134555
0.9134993
0.9135377
0.9135745
0.9136087
0.9136397
0.9136672
0.9136912
0.9137118
0.9137294
0.9137441
0.9137565
0.9137665
0.9137746
0.9137809
0.9137855
0.9137885
0.9137898
0.9137894
0.9137872
0.9137827
0.9137757
0.9137656
0.9137517
0.9137331
0.9137088
0.9136776
0.9136379
0.9135883
0.9135276
0.9134553
0.9135049
0.9135547
0.9136024
0.9136466
0.9136866
0.9137222
0.9137534
0.9137804
0.9138038
0.9138237
0.9138406
0.9138548
0.9138665
0.9138761
0.9138835
0.913889
0.9138926
0.913894
0.9138933
0.9138899
0.9138836
0.9138737
0.9138593
0.9138395
0.913813
0.9137782
0.9137337
0.9136777
0.9136091
0.9135275
0.9135046
0.9135545
0.9136022
0.9136464
0.9136864
0.913722
0.9137532
0.9137803
0.9138036
0.9138236
0.9138405
0.9138547
0.9138664
0.913876
0.9138835
0.9138889
0.9138925
0.9138939
0.9138932
0.9138899
0.9138836
0.9138736
0.9138593
0.9138395
0.9138129
0.9137782
0.9137337
0.9136777
0.9136091
0.9135274
0.9134986
0.913537
0.9135739
0.9136081
0.9136391
0.9136666
0.9136906
0.9137113
0.9137289
0.9137437
0.913756
0.9137661
0.9137742
0.9137805
0.9137851
0.9137881
0.9137894
0.913789
0.9137868
0.9137823
0.9137753
0.9137652
0.9137513
0.9137328
0.9137085
0.9136772
0.9136375
0.9135879
0.9135272
0.9134549
0.9134976
0.9135361
0.9135731
0.9136075
0.9136385
0.9136661
0.9136902
0.9137109
0.9137285
0.9137434
0.9137558
0.9137659
0.913774
0.9137803
0.9137849
0.9137879
0.9137893
0.9137889
0.9137866
0.9137822
0.9137752
0.913765
0.9137511
0.9137325
0.9137081
0.9136767
0.9136369
0.9135871
0.9135263
0.9134537
0.9135029
0.9135529
0.9136008
0.9136452
0.9136854
0.9137211
0.9137524
0.9137796
0.9138031
0.9138231
0.91384
0.9138543
0.9138661
0.9138757
0.9138832
0.9138887
0.9138923
0.9138937
0.913893
0.9138896
0.9138833
0.9138734
0.9138589
0.9138391
0.9138124
0.9137776
0.9137329
0.9136768
0.9136079
0.9135261
0.9135023
0.9135524
0.9136003
0.9136448
0.913685
0.9137207
0.9137521
0.9137793
0.9138027
0.9138228
0.9138398
0.913854
0.9138659
0.9138755
0.913883
0.9138885
0.9138921
0.9138936
0.9138929
0.9138896
0.9138833
0.9138734
0.9138591
0.9138392
0.9138127
0.9137779
0.9137333
0.9136772
0.9136083
0.9135264
0.913496
0.9135345
0.9135716
0.913606
0.9136372
0.9136648
0.9136889
0.9137097
0.9137274
0.9137423
0.9137547
0.9137648
0.913773
0.9137793
0.913784
0.913787
0.9137883
0.913788
0.9137858
0.9137813
0.9137744
0.9137643
0.9137504
0.9137319
0.9137076
0.9136763
0.9136366
0.9135869
0.9135262
0.9134537
0.9134939
0.9135327
0.9135699
0.9136046
0.9136359
0.9136637
0.9136879
0.9137088
0.9137266
0.9137416
0.913754
0.9137642
0.9137724
0.9137788
0.9137835
0.9137865
0.9137878
0.9137875
0.9137852
0.9137807
0.9137736
0.9137633
0.9137492
0.9137304
0.9137057
0.913674
0.9136338
0.9135835
0.913522
0.9134488
0.9134987
0.9135492
0.9135974
0.9136421
0.9136826
0.9137186
0.9137502
0.9137776
0.9138012
0.9138214
0.9138386
0.9138529
0.9138648
0.9138745
0.913882
0.9138876
0.9138912
0.9138927
0.9138919
0.9138885
0.9138821
0.913872
0.9138575
0.9138373
0.9138104
0.9137752
0.91373
0.9136733
0.9136038
0.9135212
0.9134976
0.913548
0.9135962
0.9136409
0.9136814
0.9137174
0.913749
0.9137765
0.9138001
0.9138203
0.9138375
0.9138519
0.9138639
0.9138736
0.9138812
0.9138869
0.9138906
0.9138922
0.9138916
0.9138884
0.9138823
0.9138725
0.9138583
0.9138386
0.9138121
0.9137772
0.9137323
0.9136756
0.9136057
0.9135221
0.9134902
0.9135289
0.9135662
0.9136008
0.9136321
0.9136599
0.9136842
0.9137051
0.9137229
0.9137379
0.9137503
0.9137605
0.9137687
0.913775
0.9137796
0.9137826
0.9137838
0.9137834
0.913781
0.9137764
0.9137692
0.9137588
0.9137445
0.9137253
0.9137002
0.9136679
0.9136267
0.9135752
0.9135119
0.9134364
0.9134747
0.9134994
0.913524
0.9135483
0.9135718
0.913594
0.9136146
0.9136334
0.9136501
0.9136648
0.9136772
0.9136875
0.9136957
0.9137017
0.9137054
0.9137069
0.913706
0.9137026
0.9136962
0.9136867
0.9136736
0.9136564
0.9136346
0.9136077
0.9135749
0.9135357
0.9134896
0.913436
0.9133748
0.9133059
0.9134829
0.9135206
0.9135579
0.9135943
0.9136291
0.9136618
0.913692
0.9137195
0.9137442
0.9137659
0.9137848
0.9138009
0.9138143
0.913825
0.913833
0.9138384
0.9138409
0.9138404
0.9138366
0.9138291
0.9138174
0.9138009
0.9137788
0.9137504
0.9137148
0.9136714
0.9136193
0.9135583
0.9134883
0.9134097
0.9134839
0.9135218
0.9135592
0.9135956
0.9136305
0.9136633
0.9136935
0.913721
0.9137457
0.9137674
0.9137863
0.9138023
0.9138156
0.9138262
0.9138341
0.9138393
0.9138417
0.9138409
0.9138369
0.913829
0.9138169
0.9138
0.9137774
0.9137486
0.9137127
0.9136689
0.9136168
0.9135561
0.9134867
0.9134093
0.913478
0.9135029
0.9135277
0.9135522
0.9135758
0.9135981
0.9136188
0.9136376
0.9136545
0.9136691
0.9136817
0.9136921
0.9137003
0.9137064
0.9137103
0.913712
0.9137112
0.913708
0.9137019
0.9136927
0.91368
0.9136633
0.9136421
0.9136159
0.9135841
0.9135462
0.9135016
0.91345
0.9133913
0.9133256
0.9134799
0.9135047
0.9135295
0.9135538
0.9135773
0.9135995
0.9136201
0.9136389
0.9136556
0.9136702
0.9136827
0.9136931
0.9137013
0.9137074
0.9137113
0.913713
0.9137124
0.9137092
0.9137033
0.9136943
0.9136818
0.9136655
0.9136447
0.913619
0.9135877
0.9135504
0.9135065
0.9134557
0.9133978
0.913333
0.9134873
0.913525
0.9135622
0.9135984
0.9136331
0.9136656
0.9136957
0.9137231
0.9137476
0.9137691
0.9137879
0.9138039
0.9138171
0.9138277
0.9138356
0.9138409
0.9138433
0.9138427
0.9138389
0.9138313
0.9138195
0.913803
0.9137809
0.9137526
0.9137172
0.9136742
0.9136227
0.9135626
0.9134938
0.9134168
0.9134879
0.9135255
0.9135627
0.9135989
0.9136336
0.9136661
0.9136962
0.9137235
0.913748
0.9137696
0.9137883
0.9138042
0.9138175
0.913828
0.9138359
0.9138411
0.9138435
0.9138429
0.9138389
0.9138312
0.9138194
0.9138027
0.9137805
0.9137521
0.9137166
0.9136734
0.9136219
0.9135617
0.913493
0.9134161
0.9134815
0.9135063
0.913531
0.9135553
0.9135788
0.913601
0.9136216
0.9136403
0.913657
0.9136716
0.9136841
0.9136944
0.9137026
0.9137086
0.9137125
0.9137142
0.9137135
0.9137103
0.9137043
0.9136952
0.9136827
0.9136662
0.9136453
0.9136195
0.9135881
0.9135506
0.9135065
0.9134555
0.9133974
0.9133323
0.9134825
0.9135072
0.9135318
0.9135561
0.9135795
0.9136016
0.9136221
0.9136408
0.9136574
0.913672
0.9136844
0.9136947
0.9137028
0.9137089
0.9137127
0.9137144
0.9137137
0.9137105
0.9137046
0.9136955
0.913683
0.9136666
0.9136458
0.91362
0.9135888
0.9135514
0.9135075
0.9134566
0.9133988
0.9133339
0.9134896
0.9135271
0.9135641
0.9136002
0.9136348
0.9136672
0.9136972
0.9137244
0.9137488
0.9137703
0.9137889
0.9138048
0.9138179
0.9138285
0.9138363
0.9138415
0.9138439
0.9138432
0.9138393
0.9138317
0.9138198
0.9138032
0.9137811
0.9137528
0.9137175
0.9136744
0.913623
0.913563
0.9134945
0.9134178
0.9134898
0.9135273
0.9135644
0.9136004
0.913635
0.9136674
0.9136974
0.9137246
0.9137489
0.9137704
0.9137891
0.9138049
0.9138181
0.9138286
0.9138365
0.9138416
0.913844
0.9138433
0.9138394
0.9138317
0.9138199
0.9138032
0.9137811
0.9137528
0.9137174
0.9136743
0.913623
0.913563
0.9134944
0.9134177
0.9134832
0.9135079
0.9135325
0.9135568
0.9135801
0.9136023
0.9136228
0.9136414
0.9136581
0.9136726
0.913685
0.9136953
0.9137034
0.9137094
0.9137133
0.9137149
0.9137142
0.913711
0.9137051
0.913696
0.9136835
0.9136671
0.9136462
0.9136204
0.9135891
0.9135517
0.9135078
0.9134569
0.913399
0.9133341
0.9134835
0.9135082
0.9135328
0.913557
0.9135803
0.9136024
0.9136229
0.9136416
0.9136582
0.9136727
0.9136851
0.9136954
0.9137035
0.9137095
0.9137134
0.913715
0.9137143
0.9137111
0.9137051
0.9136961
0.9136836
0.9136672
0.9136463
0.9136206
0.9135893
0.9135519
0.913508
0.9134571
0.9133993
0.9133344
0.9134903
0.9135278
0.9135648
0.9136008
0.9136353
0.9136677
0.9136976
0.9137248
0.9137492
0.9137706
0.9137892
0.9138051
0.9138182
0.9138287
0.9138366
0.9138417
0.9138441
0.9138434
0.9138395
0.9138319
0.91382
0.9138034
0.9137813
0.913753
0.9137177
0.9136746
0.9136233
0.9135633
0.9134948
0.9134182
0.9134903
0.9135278
0.9135648
0.9136008
0.9136353
0.9136677
0.9136976
0.9137248
0.9137492
0.9137706
0.9137892
0.9138051
0.9138182
0.9138287
0.9138366
0.9138417
0.9138441
0.9138434
0.9138395
0.9138319
0.91382
0.9138034
0.9137813
0.913753
0.9137177
0.9136746
0.9136233
0.9135633
0.9134948
0.9134182
0.9134835
0.9135082
0.9135328
0.913557
0.9135803
0.9136024
0.9136229
0.9136416
0.9136582
0.9136727
0.9136851
0.9136954
0.9137035
0.9137095
0.9137134
0.913715
0.9137143
0.9137111
0.9137051
0.9136961
0.9136836
0.9136672
0.9136463
0.9136206
0.9135893
0.9135519
0.913508
0.9134572
0.9133993
0.9133344
0.9134832
0.9135079
0.9135326
0.9135568
0.9135801
0.9136023
0.9136228
0.9136414
0.9136581
0.9136726
0.913685
0.9136953
0.9137034
0.9137094
0.9137133
0.9137149
0.9137142
0.913711
0.9137051
0.913696
0.9136835
0.9136671
0.9136462
0.9136204
0.9135891
0.9135517
0.9135078
0.9134569
0.913399
0.9133341
0.9134898
0.9135273
0.9135644
0.9136004
0.913635
0.9136674
0.9136974
0.9137246
0.9137489
0.9137704
0.9137891
0.9138049
0.9138181
0.9138286
0.9138365
0.9138416
0.913844
0.9138433
0.9138394
0.9138317
0.9138199
0.9138032
0.9137811
0.9137528
0.9137174
0.9136743
0.913623
0.913563
0.9134944
0.9134178
0.9134896
0.9135271
0.9135641
0.9136002
0.9136348
0.9136672
0.9136972
0.9137244
0.9137488
0.9137703
0.9137889
0.9138048
0.9138179
0.9138285
0.9138363
0.9138415
0.9138439
0.9138432
0.9138393
0.9138317
0.9138198
0.9138032
0.9137811
0.9137528
0.9137175
0.9136744
0.913623
0.913563
0.9134945
0.9134178
0.9134825
0.9135072
0.9135318
0.9135561
0.9135795
0.9136016
0.9136221
0.9136408
0.9136574
0.913672
0.9136844
0.9136947
0.9137028
0.9137089
0.9137128
0.9137144
0.9137137
0.9137105
0.9137046
0.9136955
0.913683
0.9136666
0.9136458
0.91362
0.9135887
0.9135514
0.9135075
0.9134566
0.9133987
0.9133339
0.9134815
0.9135063
0.9135311
0.9135554
0.9135788
0.913601
0.9136216
0.9136403
0.913657
0.9136716
0.9136841
0.9136944
0.9137026
0.9137086
0.9137125
0.9137142
0.9137135
0.9137103
0.9137043
0.9136952
0.9136827
0.9136662
0.9136453
0.9136194
0.913588
0.9135505
0.9135064
0.9134554
0.9133973
0.9133322
0.9134879
0.9135255
0.9135627
0.9135989
0.9136336
0.9136661
0.9136962
0.9137235
0.913748
0.9137696
0.9137883
0.9138042
0.9138175
0.913828
0.9138359
0.9138411
0.9138435
0.9138429
0.9138389
0.9138312
0.9138194
0.9138027
0.9137805
0.9137521
0.9137166
0.9136734
0.9136219
0.9135617
0.9134929
0.9134161
0.9134874
0.913525
0.9135622
0.9135984
0.9136331
0.9136656
0.9136957
0.9137231
0.9137476
0.9137692
0.9137879
0.9138039
0.9138171
0.9138277
0.9138356
0.9138409
0.9138433
0.9138428
0.9138389
0.9138313
0.9138195
0.913803
0.9137809
0.9137526
0.9137173
0.9136742
0.9136227
0.9135626
0.9134938
0.9134168
0.91348
0.9135047
0.9135295
0.9135538
0.9135773
0.9135995
0.9136201
0.9136389
0.9136556
0.9136702
0.9136827
0.9136931
0.9137013
0.9137074
0.9137113
0.913713
0.9137124
0.9137092
0.9137033
0.9136943
0.9136818
0.9136655
0.9136447
0.913619
0.9135878
0.9135504
0.9135066
0.9134558
0.9133979
0.9133331
0.913478
0.9135029
0.9135278
0.9135522
0.9135758
0.9135981
0.9136188
0.9136377
0.9136545
0.9136692
0.9136817
0.9136921
0.9137003
0.9137064
0.9137103
0.913712
0.9137113
0.913708
0.9137019
0.9136927
0.91368
0.9136633
0.9136422
0.913616
0.9135842
0.9135462
0.9135016
0.9134501
0.9133914
0.9133257
0.913484
0.9135218
0.9135592
0.9135956
0.9136305
0.9136633
0.9136935
0.9137211
0.9137457
0.9137674
0.9137863
0.9138023
0.9138156
0.9138262
0.9138341
0.9138393
0.9138417
0.913841
0.9138369
0.913829
0.913817
0.9138
0.9137775
0.9137487
0.9137127
0.913669
0.9136169
0.9135562
0.9134869
0.9134095
0.9134829
0.9135206
0.913558
0.9135943
0.9136291
0.9136618
0.9136921
0.9137196
0.9137442
0.9137659
0.9137848
0.9138009
0.9138143
0.913825
0.913833
0.9138384
0.9138409
0.9138405
0.9138367
0.9138292
0.9138175
0.913801
0.9137789
0.9137505
0.913715
0.9136715
0.9136195
0.9135585
0.9134885
0.91341
0.9134747
0.9134994
0.913524
0.9135483
0.9135718
0.913594
0.9136147
0.9136334
0.9136502
0.9136648
0.9136773
0.9136876
0.9136957
0.9137017
0.9137055
0.913707
0.9137061
0.9137026
0.9136963
0.9136868
0.9136737
0.9136565
0.9136348
0.9136079
0.9135751
0.913536
0.9134899
0.9134364
0.9133752
0.9133064
0.91346
0.9134784
0.9134969
0.9135152
0.9135332
0.9135506
0.913567
0.9135823
0.9135961
0.9136083
0.9136186
0.9136269
0.913633
0.9136367
0.913638
0.9136367
0.9136325
0.9136252
0.9136146
0.9136004
0.9135823
0.9135598
0.9135327
0.9135006
0.9134631
0.9134199
0.9133708
0.9133156
0.9132542
0.9131865
0.9134692
0.9135009
0.9135325
0.9135636
0.9135938
0.9136229
0.9136503
0.9136758
0.9136991
0.91372
0.9137383
0.9137539
0.9137667
0.9137765
0.9137833
0.9137868
0.9137869
0.9137833
0.9137756
0.9137634
0.9137463
0.9137239
0.9136957
0.9136611
0.9136199
0.9135717
0.9135164
0.9134542
0.9133855
0.9133109
0.9134701
0.913502
0.9135337
0.9135649
0.9135952
0.9136244
0.9136519
0.9136774
0.9137008
0.9137217
0.9137399
0.9137555
0.9137682
0.913778
0.9137846
0.913788
0.9137879
0.913784
0.913776
0.9137636
0.9137463
0.9137236
0.9136951
0.9136605
0.9136192
0.9135712
0.9135163
0.9134548
0.913387
0.9133135
0.913463
0.9134817
0.9135004
0.9135189
0.9135371
0.9135547
0.9135713
0.9135867
0.9136007
0.913613
0.9136235
0.913632
0.9136383
0.9136423
0.9136439
0.9136429
0.9136391
0.9136324
0.9136224
0.9136089
0.9135916
0.9135702
0.9135443
0.9135137
0.9134781
0.9134372
0.9133909
0.913339
0.9132815
0.9132186
0.9134648
0.9134835
0.9135021
0.9135206
0.9135387
0.9135562
0.9135727
0.9135881
0.9136021
0.9136144
0.9136249
0.9136334
0.9136397
0.9136438
0.9136455
0.9136446
0.913641
0.9136345
0.9136248
0.9136116
0.9135947
0.9135738
0.9135485
0.9135185
0.9134836
0.9134434
0.9133979
0.9133469
0.9132904
0.9132284
0.9134732
0.913505
0.9135365
0.9135676
0.9135978
0.9136268
0.9136542
0.9136796
0.9137029
0.9137237
0.9137419
0.9137574
0.9137702
0.91378
0.9137867
0.9137903
0.9137904
0.9137868
0.9137792
0.9137672
0.9137503
0.9137282
0.9137003
0.9136662
0.9136256
0.9135783
0.913524
0.913463
0.9133957
0.9133226
0.9134737
0.9135055
0.913537
0.9135681
0.9135984
0.9136274
0.9136547
0.9136802
0.9137034
0.9137242
0.9137424
0.9137579
0.9137705
0.9137803
0.913787
0.9137905
0.9137905
0.9137868
0.9137791
0.9137669
0.9137499
0.9137276
0.9136996
0.9136654
0.9136247
0.9135772
0.9135229
0.9134618
0.9133945
0.9133215
0.9134663
0.913485
0.9135036
0.9135221
0.9135402
0.9135577
0.9135743
0.9135897
0.9136036
0.9136159
0.9136263
0.9136348
0.9136411
0.9136451
0.9136468
0.9136458
0.9136421
0.9136355
0.9136257
0.9136124
0.9135954
0.9135743
0.9135488
0.9135186
0.9134834
0.9134429
0.9133971
0.9133458
0.9132889
0.9132265
0.9134672
0.9134858
0.9135044
0.9135228
0.9135409
0.9135583
0.9135749
0.9135902
0.9136041
0.9136163
0.9136267
0.9136352
0.9136415
0.9136455
0.9136471
0.9136462
0.9136425
0.9136359
0.9136261
0.9136129
0.9135959
0.9135749
0.9135495
0.9135194
0.9134844
0.9134441
0.9133985
0.9133473
0.9132907
0.9132285
0.9134753
0.913507
0.9135385
0.9135695
0.9135996
0.9136285
0.9136558
0.9136811
0.9137043
0.913725
0.9137431
0.9137585
0.9137712
0.9137809
0.9137876
0.913791
0.9137911
0.9137874
0.9137797
0.9137675
0.9137506
0.9137284
0.9137004
0.9136664
0.9136258
0.9135784
0.9135242
0.9134633
0.9133961
0.9133233
0.9134756
0.9135072
0.9135387
0.9135697
0.9135998
0.9136287
0.913656
0.9136813
0.9137045
0.9137252
0.9137433
0.9137587
0.9137713
0.913781
0.9137877
0.9137911
0.9137912
0.9137875
0.9137797
0.9137676
0.9137506
0.9137284
0.9137004
0.9136663
0.9136257
0.9135783
0.9135241
0.9134632
0.913396
0.9133232
0.9134679
0.9134865
0.9135051
0.9135236
0.9135416
0.913559
0.9135756
0.9135909
0.9136048
0.913617
0.9136274
0.9136358
0.9136421
0.9136461
0.9136477
0.9136468
0.9136431
0.9136365
0.9136267
0.9136134
0.9135964
0.9135754
0.9135499
0.9135198
0.9134847
0.9134444
0.9133987
0.9133474
0.9132907
0.9132285
0.9134682
0.9134868
0.9135054
0.9135238
0.9135418
0.9135592
0.9135757
0.913591
0.9136049
0.9136171
0.9136275
0.9136359
0.9136422
0.9136462
0.9136478
0.9136469
0.9136432
0.9136366
0.9136268
0.9136135
0.9135966
0.9135755
0.9135501
0.91352
0.913485
0.9134447
0.913399
0.9133478
0.9132911
0.9132289
0.9134761
0.9135077
0.9135391
0.9135701
0.9136002
0.9136291
0.9136563
0.9136816
0.9137047
0.9137254
0.9137435
0.9137589
0.9137715
0.9137812
0.9137879
0.9137913
0.9137913
0.9137876
0.9137799
0.9137678
0.9137509
0.9137287
0.9137007
0.9136667
0.9136261
0.9135787
0.9135246
0.9134637
0.9133965
0.9133237
0.9134761
0.9135077
0.9135391
0.9135701
0.9136002
0.9136291