/*--------------------------------*- C++ -*----------------------------------*\
| =========                 |                                                 |
| \\      /  F ield         | OpenFOAM: The Open Source CFD Toolbox           |
|  \\    /   O peration     | Version:  4.0                                   |
|   \\  /    A nd           | Web:      www.OpenFOAM.org                      |
|    \\/     M anipulation  |                                                 |
\*---------------------------------------------------------------------------*/
FoamFile
{
    version     2.0;
    format      ascii;
    class       volVectorField;
    location    "60/air";
    object      U;
}
// * * * * * * * * * * * * * * * * * * * * * * * * * * * * * * * * * * * * * //

dimensions      [0 1 -1 0 0 0 0];

internalField   nonuniform List<vector> 
39776
(
(0.3168982 0.01030588 16.89499)
(0.7598853 0.01457293 23.99158)
(0.8821701 0.01468102 24.9013)
(0.9068149 0.01534423 25.18322)
(0.8321294 0.0177197 25.21732)
(0.8057393 0.01872901 25.21219)
(0.7827569 0.01875097 25.21841)
(0.7584356 0.01790161 25.22456)
(0.7356119 0.01632545 25.21265)
(0.7141128 0.01458888 25.19105)
(0.6939518 0.01286209 25.16672)
(0.6752111 0.01116607 25.14293)
(0.6578879 0.009505997 25.12135)
(0.6419512 0.007775457 25.10015)
(0.6272628 0.006032741 25.08235)
(0.6138784 0.004048106 25.06386)
(0.6016874 0.001822957 25.04595)
(0.5905865 -0.0006245808 25.02968)
(0.5807313 -0.003438975 25.01344)
(0.5720033 -0.006688843 24.99682)
(0.5645326 -0.01037074 24.97984)
(0.5581932 -0.01420805 24.96545)
(0.553233 -0.01789988 24.95624)
(0.5493992 -0.02115877 24.95323)
(0.5464027 -0.02444056 24.95311)
(0.54614 -0.0264986 24.95852)
(0.5477528 -0.02847092 24.95796)
(0.5485272 -0.02460581 24.94644)
(0.4731976 0.001307369 24.79976)
(0.8882569 0.2268996 23.65428)
(0.3169878 0.005974431 16.96401)
(0.757792 0.01066118 24.08562)
(0.8852454 0.006419803 25.03029)
(0.8642048 0.01085009 25.44135)
(0.8331196 0.01530345 25.43734)
(0.8061017 0.01869433 25.38669)
(0.7791969 0.02091185 25.37086)
(0.7541662 0.02173052 25.37779)
(0.728314 0.01946149 25.36608)
(0.7049417 0.01628668 25.3488)
(0.6833098 0.01317773 25.33559)
(0.6633403 0.010087 25.32552)
(0.6448842 0.006717821 25.31446)
(0.6271531 0.002316895 25.29482)
(0.6113727 -0.001977422 25.27935)
(0.5976326 -0.005792376 25.27377)
(0.5845139 -0.0108387 25.26295)
(0.5721697 -0.01725502 25.24717)
(0.5611381 -0.02430468 25.23332)
(0.5516782 -0.0318716 25.22296)
(0.5435796 -0.04059447 25.21239)
(0.5369925 -0.05045979 25.20272)
(0.5317501 -0.06170805 25.19328)
(0.5281935 -0.07459402 25.18369)
(0.52561 -0.08903061 25.17559)
(0.5264334 -0.1045969 25.16821)
(0.5266313 -0.1233438 25.15975)
(0.5313941 -0.1368968 25.13858)
(0.469735 -0.1451736 25.00182)
(0.8319506 -0.05512005 23.93038)
(0.3160619 -0.02302094 16.95873)
(0.756757 -0.03382604 24.06323)
(0.8740492 -0.03806267 25.04493)
(0.8599328 -0.03889171 25.36021)
(0.8231359 -0.03598448 25.39592)
(0.7981281 -0.03236403 25.37256)
(0.7719001 -0.02705837 25.36844)
(0.7450033 -0.02260378 25.37909)
(0.7188498 -0.02056085 25.38018)
(0.6946561 -0.02015464 25.37327)
(0.6706101 -0.02020563 25.3665)
(0.6467447 -0.02043163 25.36093)
(0.6237774 -0.02108396 25.35276)
(0.6002468 -0.02234471 25.34049)
(0.5774846 -0.02326381 25.33194)
(0.5532677 -0.02480716 25.31816)
(0.5281429 -0.02680588 25.30122)
(0.5033915 -0.02836041 25.28879)
(0.4783437 -0.02989301 25.27689)
(0.4518422 -0.03182057 25.26206)
(0.4244288 -0.03297253 25.25362)
(0.3954927 -0.03358999 25.24925)
(0.3646395 -0.03374311 25.24738)
(0.331292 -0.03361712 25.24544)
(0.2953532 -0.03253555 25.24438)
(0.256837 -0.02931805 25.24149)
(0.2112616 -0.01888061 25.22182)
(0.1501949 0.01489946 25.09054)
(0.1273017 0.1206144 24.42405)
(0.2425861 0.4193132 21.00122)
(0.3162331 -0.01864725 16.90257)
(0.7589065 -0.02969051 24.01757)
(0.8640438 -0.03373063 25.33836)
(0.8510709 -0.03366506 25.40699)
(0.8177872 -0.03267431 25.35439)
(0.797071 -0.03111862 25.29554)
(0.7765967 -0.02897984 25.26862)
(0.7542154 -0.02661391 25.27171)
(0.7281376 -0.02535097 25.25715)
(0.7057927 -0.02436832 25.23966)
(0.6854188 -0.02335134 25.2233)
(0.667961 -0.02194096 25.21522)
(0.6524286 -0.02029008 25.20922)
(0.6383355 -0.01845169 25.20315)
(0.625892 -0.01625172 25.19828)
(0.6145928 -0.013644 25.19162)
(0.6047464 -0.01044318 25.18475)
(0.5960998 -0.00662405 25.17603)
(0.5887782 -0.002086192 25.16563)
(0.5833221 0.003391061 25.15599)
(0.5800838 0.0100491 25.14858)
(0.57955 0.01812062 25.14446)
(0.5813717 0.02773925 25.14208)
(0.5863764 0.03900674 25.14093)
(0.593358 0.05234578 25.14138)
(0.6057923 0.06745126 25.14223)
(0.6182509 0.08592271 25.14564)
(0.6397827 0.1054766 25.1369)
(0.6563805 0.1335325 25.0828)
(0.7496195 0.05796961 23.74831)
(0.3204626 0.01737883 16.8647)
(0.7735801 0.02697648 24.05484)
(0.8966244 0.02941076 25.41449)
(0.8896966 0.02972634 25.43024)
(0.8644556 0.03006701 25.34575)
(0.8471285 0.03023362 25.28412)
(0.8297886 0.02997775 25.26263)
(0.8109303 0.02933911 25.25278)
(0.7906925 0.02848727 25.2326)
(0.7744994 0.02734726 25.2187)
(0.7591621 0.02626841 25.20652)
(0.7455417 0.02523514 25.19727)
(0.7336668 0.02417997 25.1884)
(0.7232059 0.02301952 25.17869)
(0.7141694 0.02172252 25.16846)
(0.7066712 0.02027918 25.15792)
(0.7008402 0.01867907 25.1474)
(0.6967379 0.0169008 25.13714)
(0.6943581 0.01491068 25.12714)
(0.693784 0.01267131 25.11751)
(0.6949573 0.01014793 25.10823)
(0.6981135 0.007336359 25.09928)
(0.7028396 0.004179997 25.09051)
(0.7102819 0.0008015985 25.08188)
(0.718306 -0.003184512 25.07363)
(0.731642 -0.006895381 25.06467)
(0.7415523 -0.0125253 25.05794)
(0.7627727 -0.01515214 25.04479)
(0.7727432 -0.01174771 24.97636)
(0.8460651 0.05709176 24.59115)
(0.320836 0.01849353 16.92272)
(0.7733446 0.02947282 24.12121)
(0.910461 0.02675768 24.90443)
(0.9415051 0.02628914 25.2035)
(0.8882069 0.03060626 25.31456)
(0.8639098 0.03289661 25.33949)
(0.8442727 0.03370435 25.35654)
(0.8222031 0.03329206 25.36638)
(0.805953 0.03239219 25.37706)
(0.7845996 0.03101515 25.35924)
(0.7649046 0.02936141 25.33873)
(0.7483198 0.02752381 25.32324)
(0.7385241 0.02566022 25.32372)
(0.7280733 0.02355506 25.32072)
(0.7176618 0.0212089 25.31404)
(0.7086202 0.01869987 25.30663)
(0.7016505 0.0160659 25.30095)
(0.6960945 0.01318593 25.29591)
(0.6912852 0.009957599 25.29013)
(0.6871902 0.006308529 25.28369)
(0.6838641 0.002117915 25.27677)
(0.6816838 -0.00276132 25.27006)
(0.6802618 -0.008577045 25.26281)
(0.6802445 -0.01549531 25.25484)
(0.6804468 -0.02398364 25.24707)
(0.6838045 -0.03376418 25.23809)
(0.6847047 -0.046365 25.23246)
(0.6917606 -0.05871054 25.21509)
(0.6857274 -0.07501428 25.17572)
(0.7585246 -0.04728431 23.90198)
(0.3205724 -0.01410155 16.91586)
(0.7734634 -0.02316956 24.10397)
(0.9074271 -0.02294796 24.98824)
(0.9388788 -0.02295149 25.27046)
(0.8768983 -0.02535703 25.29944)
(0.8525793 -0.02321351 25.32247)
(0.8320025 -0.02032372 25.34055)
(0.812571 -0.01740866 25.35511)
(0.7896038 -0.01543591 25.35041)
(0.7717042 -0.0136009 25.34412)
(0.754623 -0.01200441 25.33519)
(0.7393233 -0.01014071 25.33093)
(0.725524 -0.008047282 25.32991)
(0.7101638 -0.006169985 25.3217)
(0.6966746 -0.004116988 25.31383)
(0.6816177 -0.002341306 25.29734)
(0.6701457 5.637082e-05 25.28988)
(0.6600064 0.003005767 25.28845)
(0.6494517 0.006240182 25.2873)
(0.6379778 0.009687405 25.28422)
(0.6256996 0.01348812 25.28006)
(0.6125748 0.01782414 25.2757)
(0.5983117 0.0228491 25.27126)
(0.5830068 0.02881607 25.26739)
(0.5662414 0.03590011 25.26426)
(0.547722 0.04423159 25.25988)
(0.5281867 0.0544964 25.25851)
(0.5014463 0.0671102 25.23236)
(0.448106 0.09106367 25.10372)
(0.5088545 0.1453996 23.36026)
(0.3209533 -0.01519284 16.86042)
(0.7755935 -0.0255821 24.05806)
(0.9018684 -0.02890939 25.42689)
(0.8939462 -0.02986487 25.42449)
(0.8710225 -0.0290332 25.3386)
(0.8564764 -0.02731346 25.27642)
(0.8409503 -0.02516441 25.25439)
(0.8272646 -0.0228229 25.25358)
(0.8039065 -0.02125812 25.22728)
(0.7872688 -0.01940714 25.2124)
(0.7718615 -0.01752378 25.19435)
(0.7602989 -0.01524338 25.18248)
(0.7540212 -0.01235455 25.18209)
(0.7497714 -0.009092221 25.18297)
(0.7458382 -0.005574479 25.17903)
(0.7426576 -0.001769171 25.171)
(0.7414433 0.002446007 25.16249)
(0.7429573 0.007236448 25.15584)
(0.7474062 0.01273233 25.15136)
(0.7543712 0.019006 25.14747)
(0.7642071 0.02622439 25.14487)
(0.7771347 0.03453211 25.14339)
(0.7929887 0.04413597 25.14264)
(0.8125567 0.05514358 25.14233)
(0.834773 0.06799122 25.14267)
(0.8625251 0.08242995 25.14235)
(0.891137 0.09980274 25.14503)
(0.9282416 0.1182694 25.14152)
(0.9606083 0.1476501 25.17284)
(1.015009 0.02416702 24.17949)
(0.3212758 0.01976049 16.8548)
(0.7753524 0.03140893 24.06972)
(0.9146695 0.02960997 24.85104)
(0.9416904 0.03044377 25.11476)
(0.8820032 0.03497391 25.16451)
(0.855131 0.03569101 25.17978)
(0.8329722 0.0350022 25.18965)
(0.8139757 0.03395693 25.20043)
(0.7979972 0.03289548 25.20472)
(0.7832878 0.03176635 25.20096)
(0.770059 0.0306348 25.19602)
(0.7585039 0.02959279 25.19063)
(0.7487386 0.02853325 25.18406)
(0.7404035 0.0273452 25.1757)
(0.7334492 0.02599627 25.16631)
(0.7281376 0.02448146 25.15743)
(0.7247243 0.02279753 25.15023)
(0.7231929 0.02092464 25.14464)
(0.7234885 0.0188237 25.1401)
(0.7257367 0.01645839 25.13638)
(0.7299936 0.01378843 25.1333)
(0.7364376 0.01077246 25.13073)
(0.7447934 0.007301628 25.12847)
(0.755861 0.003390561 25.12643)
(0.7680758 -0.001299703 25.12477)
(0.785267 -0.00628342 25.12258)
(0.8000177 -0.01288712 25.12249)
(0.8257296 -0.01868249 25.11797)
(0.8411228 -0.02289589 25.08301)
(0.9107834 0.00740712 24.86102)
(0.3220398 0.02202574 16.91186)
(0.7789172 0.03515171 24.13225)
(0.9084571 0.03739486 25.39054)
(0.8985446 0.03944831 25.45946)
(0.8714621 0.04034629 25.35402)
(0.8552693 0.04009942 25.31987)
(0.8453969 0.03916944 25.33395)
(0.8322411 0.038122 25.35039)
(0.8167516 0.03704769 25.36017)
(0.8023954 0.03586689 25.3601)
(0.7882744 0.03484653 25.34952)
(0.7719876 0.03395356 25.33039)
(0.7615022 0.03290116 25.3252)
(0.7534939 0.03174277 25.32569)
(0.7456265 0.03051481 25.32333)
(0.7377676 0.02921655 25.31743)
(0.731035 0.02785866 25.31194)
(0.7239941 0.02652171 25.30415)
(0.717519 0.02520623 25.29648)
(0.712461 0.02384798 25.29023)
(0.7087638 0.02232978 25.28508)
(0.7061361 0.02048797 25.28051)
(0.7039842 0.01815365 25.27608)
(0.7025241 0.01509884 25.27117)
(0.7007611 0.01122163 25.26666)
(0.7007716 0.006115121 25.26014)
(0.6988795 1.326558e-05 25.25807)
(0.6987883 -0.00759046 25.24163)
(0.688674 -0.01902596 25.21117)
(0.7564377 -0.03939469 23.91443)
(0.3220969 -0.01481808 16.90464)
(0.7792394 -0.02404931 24.1177)
(0.9157466 -0.0223335 25.00517)
(0.9368527 -0.02277566 25.27632)
(0.88869 -0.0256318 25.29051)
(0.858402 -0.02520659 25.28365)
(0.8393611 -0.02314803 25.30125)
(0.8228411 -0.02065563 25.32051)
(0.8087238 -0.01822635 25.33494)
(0.7953034 -0.01602895 25.33642)
(0.7830681 -0.01396246 25.33178)
(0.7729152 -0.01184452 25.331)
(0.7605669 -0.009830298 25.3236)
(0.7501134 -0.007636602 25.31794)
(0.7407468 -0.005268208 25.31244)
(0.7326104 -0.002707714 25.30719)
(0.7244145 1.491425e-06 25.29827)
(0.7170379 0.002956171 25.28796)
(0.711105 0.006281583 25.27921)
(0.7063535 0.01004093 25.27265)
(0.7021684 0.01427099 25.26746)
(0.6983817 0.01904577 25.26295)
(0.694541 0.02449234 25.25864)
(0.6914118 0.03076776 25.25456)
(0.6872669 0.03809354 25.25129)
(0.685451 0.04654512 25.24722)
(0.6791974 0.05654103 25.2479)
(0.6774688 0.06791868 25.23512)
(0.6616332 0.08302844 25.2004)
(0.7286669 0.1014351 23.86914)
(0.3217048 -0.01705697 16.84999)
(0.7773762 -0.02775588 24.06676)
(0.9198234 -0.02544432 24.85779)
(0.9080549 -0.02935504 25.17287)
(0.8707907 -0.0308102 25.16618)
(0.8526864 -0.0300034 25.15576)
(0.8347076 -0.02851516 25.16194)
(0.8206478 -0.02670565 25.17634)
(0.8083093 -0.02482569 25.18698)
(0.7962999 -0.02294652 25.18763)
(0.7841819 -0.02114126 25.1808)
(0.7735933 -0.01924681 25.1733)
(0.7664218 -0.01710456 25.17038)
(0.7611063 -0.01477088 25.16726)
(0.7580612 -0.01219878 25.16426)
(0.7562065 -0.009382526 25.15826)
(0.7566312 -0.006233405 25.15234)
(0.7599447 -0.002713152 25.14868)
(0.7656256 0.001185963 25.14594)
(0.7734223 0.005521663 25.14314)
(0.78328 0.01039463 25.14003)
(0.7954898 0.01590978 25.13677)
(0.8100009 0.02222569 25.13355)
(0.8277229 0.02938572 25.13058)
(0.8475102 0.03776447 25.12803)
(0.8724548 0.0470092 25.12556)
(0.8969874 0.05838055 25.12418)
(0.9316449 0.06994005 25.12283)
(0.9608294 0.08716079 25.11252)
(1.025012 0.08359333 25.03533)
(0.3215714 0.01722472 16.84947)
(0.777174 0.02756877 24.06225)
(0.9161592 0.02683367 24.92272)
(0.9505554 0.0270754 25.15102)
(0.8878825 0.03114481 25.19167)
(0.8604691 0.0313252 25.18456)
(0.840636 0.03006544 25.19423)
(0.8258189 0.02842403 25.21668)
(0.807932 0.02722251 25.21817)
(0.7931234 0.02604195 25.21118)
(0.7796176 0.02484696 25.19999)
(0.7674343 0.0235844 25.18708)
(0.7574078 0.02215838 25.17501)
(0.750592 0.02051839 25.16748)
(0.7460365 0.01864372 25.16261)
(0.7433715 0.01651413 25.15874)
(0.742151 0.01408959 25.15382)
(0.742831 0.01130513 25.14914)
(0.745668 0.008121069 25.14556)
(0.7507434 0.004496635 25.14284)
(0.7580008 0.000369834 25.14044)
(0.767584 -0.004316985 25.13813)
(0.779326 -0.00967146 25.13583)
(0.79399 -0.01568417 25.13367)
(0.8104585 -0.02267864 25.13173)
(0.831792 -0.03024091 25.12969)
(0.8522345 -0.03965021 25.1289)
(0.8824575 -0.04879108 25.12701)
(0.9061768 -0.06042335 25.10577)
(0.9733884 -0.04525714 24.96457)
(0.3217981 0.01785907 16.90841)
(0.7780366 0.02846801 24.12526)
(0.9187007 0.02719385 24.96571)
(0.8952134 0.03189593 25.26555)
(0.8771854 0.03202372 25.33223)
(0.8609638 0.03024439 25.33797)
(0.8514988 0.02864929 25.34813)
(0.8281832 0.02712366 25.34471)
(0.8071409 0.02595667 25.33754)
(0.7937669 0.02452545 25.33955)
(0.7775958 0.02333955 25.32389)
(0.7669759 0.0220471 25.31943)
(0.7539342 0.02080069 25.30703)
(0.7461703 0.01926386 25.30489)
(0.7406011 0.01753612 25.308)
(0.734045 0.01578663 25.30743)
(0.7270678 0.01396245 25.30378)
(0.7208509 0.01195855 25.29936)
(0.7156043 0.009706546 25.29489)
(0.7110775 0.007132351 25.29043)
(0.7070024 0.004139777 25.28593)
(0.7035078 0.0005959044 25.28164)
(0.7003888 -0.003642148 25.27761)
(0.6980206 -0.008756234 25.27354)
(0.6952051 -0.01484902 25.27013)
(0.6936483 -0.0222033 25.26474)
(0.6897321 -0.03077018 25.26403)
(0.6874221 -0.04080349 25.24725)
(0.6745566 -0.05493261 25.2157)
(0.7408517 -0.07856236 23.89158)
(0.3220267 -0.01752686 16.90831)
(0.7790859 -0.0281389 24.12538)
(0.9128658 -0.02688983 24.97335)
(0.9446894 -0.02681546 25.23149)
(0.8827374 -0.03116799 25.25969)
(0.8632503 -0.03164001 25.30299)
(0.8508142 -0.03045037 25.32038)
(0.8360265 -0.02877418 25.3406)
(0.8210992 -0.02724569 25.35764)
(0.8068971 -0.02587006 25.36277)
(0.7929161 -0.0246537 25.35565)
(0.7781362 -0.02346577 25.34314)
(0.7671225 -0.02209955 25.33872)
(0.7580351 -0.02066518 25.33574)
(0.7497193 -0.01913028 25.33059)
(0.741586 -0.01743096 25.32336)
(0.7333615 -0.01551865 25.31455)
(0.7257997 -0.01334088 25.30625)
(0.7192646 -0.01086413 25.29925)
(0.7137698 -0.008038598 25.2934)
(0.7091732 -0.00478537 25.28838)
(0.7053142 -0.0009999657 25.28374)
(0.7017912 0.003434122 25.27918)
(0.6989717 0.008683339 25.27459)
(0.6957748 0.01485135 25.27073)
(0.6939095 0.02218695 25.26505)
(0.6894501 0.03067278 25.26437)
(0.6876647 0.04073082 25.24642)
(0.6739543 0.05430724 25.21533)
(0.7402856 0.07684566 23.88524)
(0.3214843 -0.01812634 16.85074)
(0.7767746 -0.02894267 24.06428)
(0.915437 -0.02806095 24.92376)
(0.94954 -0.02759927 25.14549)
(0.8873537 -0.03088955 25.18846)
(0.8600017 -0.03080029 25.18318)
(0.840774 -0.0296884 25.19391)
(0.8246664 -0.02846299 25.2129)
(0.8080928 -0.02745701 25.22035)
(0.7926673 -0.02639626 25.21263)
(0.7785855 -0.02528357 25.19776)
(0.7678479 -0.02399197 25.18613)
(0.7613199 -0.02241551 25.18343)
(0.7558772 -0.02066759 25.18086)
(0.7508909 -0.01878247 25.17491)
(0.7469759 -0.01669768 25.16681)
(0.7447371 -0.01432441 25.15861)
(0.7445482 -0.01158796 25.15156)
(0.7466052 -0.008430665 25.14603)
(0.7510238 -0.004802715 25.14185)
(0.7578095 -0.0006486912 25.13867)
(0.767124 0.00407631 25.13616)
(0.7787409 0.009480601 25.13402)
(0.7934001 0.01554311 25.1321)
(0.8097973 0.02261462 25.13042)
(0.831213 0.03022064 25.1284)
(0.851589 0.03972992 25.1276)
(0.8815487 0.04891169 25.12585)
(0.9055667 0.06049027 25.10348)
(0.9728883 0.04492551 24.96373)
(0.3217577 0.01667097 16.8504)
(0.7773989 0.02707977 24.06737)
(0.9170895 0.02504121 24.85119)
(0.9538505 0.02461564 25.10208)
(0.8908669 0.02841241 25.16692)
(0.8642241 0.02858154 25.1878)
(0.8419236 0.0277289 25.19431)
(0.8248735 0.0263918 25.19938)
(0.8140674 0.02475689 25.21063)
(0.8044417 0.02308841 25.21468)
(0.7939157 0.02140651 25.209)
(0.7838851 0.01956701 25.19991)
(0.7751653 0.01753915 25.18974)
(0.7679903 0.01529278 25.17905)
(0.7629627 0.01278909 25.1699)
(0.7601464 0.01002185 25.16225)
(0.759634 0.006956559 25.1556)
(0.7617996 0.003534687 25.15053)
(0.7666108 -0.0002972946 25.14675)
(0.7739267 -0.004607495 25.14356)
(0.7835776 -0.009495489 25.14046)
(0.7956953 -0.01505987 25.13736)
(0.8101256 -0.02144717 25.13433)
(0.8277545 -0.0286886 25.13148)
(0.8473842 -0.03714868 25.12903)
(0.8721442 -0.0464637 25.12662)
(0.8967083 -0.0578849 25.12522)
(0.9303634 -0.06954309 25.12416)
(0.960288 -0.08654021 25.11204)
(1.026338 -0.08186086 25.0161)
(0.3220265 0.01488762 16.90468)
(0.7788771 0.02433206 24.11865)
(0.9135561 0.02295762 25.0071)
(0.9380748 0.02287054 25.27832)
(0.8927105 0.02499819 25.31691)
(0.8629544 0.02460624 25.30504)
(0.8427833 0.02331394 25.30594)
(0.8258135 0.02168377 25.31816)
(0.8093718 0.01991462 25.32772)
(0.7953947 0.01800006 25.33145)
(0.7844439 0.01596278 25.33465)
(0.7720605 0.01402585 25.32971)
(0.7602878 0.01201222 25.32171)
(0.7503999 0.009732112 25.31493)
(0.74109 0.007225423 25.30711)
(0.7328241 0.004494593 25.30006)
(0.7250966 0.001558997 25.29281)
(0.7175985 -0.001574132 25.2843)
(0.71088 -0.004961293 25.27588)
(0.7052946 -0.008689159 25.26901)
(0.7008093 -0.01285949 25.26436)
(0.6970822 -0.01757021 25.26092)
(0.6935331 -0.02295786 25.25805)
(0.690647 -0.0291523 25.25522)
(0.6867067 -0.03637511 25.25305)
(0.6848197 -0.04467895 25.24942)
(0.6783581 -0.05448326 25.25041)
(0.6766617 -0.06574515 25.23684)
(0.6606476 -0.08058483 25.20467)
(0.7267887 -0.09925356 23.87411)
(0.3220065 -0.02151084 16.91131)
(0.7792563 -0.03395556 24.13117)
(0.9062921 -0.03522066 25.30397)
(0.9056098 -0.03588443 25.43738)
(0.8820677 -0.03658377 25.4166)
(0.8688908 -0.03662196 25.37436)
(0.8537432 -0.03638388 25.35313)
(0.8368648 -0.03583178 25.35325)
(0.8200165 -0.03490666 25.36062)
(0.8067488 -0.03379037 25.36592)
(0.789816 -0.03276892 25.34959)
(0.7719327 -0.03173566 25.3267)
(0.7580545 -0.03065122 25.31371)
(0.7469828 -0.02957025 25.30691)
(0.7359928 -0.02854495 25.29734)
(0.7266113 -0.02754996 25.28844)
(0.7195764 -0.02653889 25.2827)
(0.7137083 -0.02551346 25.27753)
(0.7091652 -0.02443358 25.27356)
(0.7053412 -0.02325004 25.26946)
(0.7022592 -0.02183882 25.26571)
(0.7002375 -0.02002469 25.26316)
(0.6990467 -0.01764245 25.26153)
(0.6988765 -0.01448787 25.25966)
(0.6984685 -0.01048182 25.25779)
(0.6997539 -0.005232996 25.2532)
(0.6985429 0.0009778844 25.25274)
(0.7005587 0.008938464 25.23547)
(0.6896091 0.02029538 25.20778)
(0.7590602 0.04103817 23.91948)
(0.3212842 -0.0196947 16.85383)
(0.7758147 -0.03113387 24.0676)
(0.9135753 -0.03011376 24.92607)
(0.9475764 -0.02991297 25.15623)
(0.8824415 -0.03345029 25.19971)
(0.8537048 -0.03366012 25.19453)
(0.8358381 -0.0331501 25.20723)
(0.8139878 -0.03276988 25.19903)
(0.7980705 -0.03196977 25.19746)
(0.7848003 -0.03081274 25.19625)
(0.7708252 -0.02967555 25.18885)
(0.7575893 -0.0286323 25.17954)
(0.7462858 -0.02758185 25.17147)
(0.7376785 -0.02643018 25.166)
(0.7310745 -0.02514972 25.1606)
(0.7267782 -0.02371161 25.15641)
(0.7247711 -0.02210261 25.15408)
(0.7244742 -0.02032414 25.15205)
(0.7256265 -0.01835262 25.14934)
(0.7283109 -0.01613928 25.14592)
(0.7326018 -0.0136204 25.14205)
(0.7387934 -0.01073148 25.13812)
(0.7467461 -0.007359015 25.13438)
(0.7573998 -0.003529114 25.13095)
(0.7692202 0.001089789 25.12812)
(0.786138 0.00599069 25.12494)
(0.8006496 0.01252757 25.12412)
(0.8260985 0.01823192 25.11891)
(0.8415787 0.02240654 25.08288)
(0.91132 -0.008251942 24.85764)
(0.3209676 0.01537663 16.85998)
(0.7756705 0.02556518 24.05717)
(0.9031065 0.02885263 25.42563)
(0.8932418 0.02917394 25.42434)
(0.8719939 0.02701349 25.33683)
(0.8563285 0.02468879 25.27669)
(0.8403382 0.0227549 25.25933)
(0.8253588 0.02121425 25.25877)
(0.8048164 0.02035727 25.23623)
(0.7877414 0.01909312 25.21531)
(0.7725842 0.01743155 25.1947)
(0.7642482 0.01498022 25.1899)
(0.758229 0.0121131 25.18999)
(0.7533438 0.009022757 25.18913)
(0.7493527 0.00571577 25.18508)
(0.7469358 0.002044106 25.17936)
(0.746582 -0.002109357 25.1734)
(0.7484767 -0.006829864 25.16761)
(0.7528039 -0.01222679 25.16237)
(0.7596529 -0.01841699 25.15779)
(0.7690655 -0.02553186 25.15385)
(0.7813457 -0.03371021 25.15057)
(0.7964812 -0.04316451 25.14797)
(0.8153583 -0.05400444 25.14608)
(0.8370168 -0.06667498 25.14525)
(0.8642673 -0.0809373 25.14422)
(0.8925262 -0.09811676 25.1465)
(0.9296055 -0.1163609 25.14179)
(0.9605678 -0.1454006 25.17912)
(1.016861 -0.02346401 24.17687)
(0.320601 0.01462248 16.91503)
(0.7740525 0.02435592 24.10418)
(0.9038107 0.02377796 24.94955)
(0.9319476 0.02314944 25.23598)
(0.8731873 0.02516759 25.29887)
(0.8444255 0.02416682 25.2954)
(0.828225 0.02176827 25.30357)
(0.8074603 0.01923852 25.31695)
(0.7887884 0.01679586 25.33084)
(0.7714053 0.01469033 25.33588)
(0.7563442 0.01266625 25.33753)
(0.7429405 0.01055139 25.33823)
(0.7270137 0.008863702 25.32747)
(0.7102476 0.007383673 25.31021)
(0.6953811 0.00561558 25.29637)
(0.6830088 0.003384124 25.28897)
(0.6712255 0.000935894 25.28288)
(0.6612786 -0.002054085 25.2826)
(0.6508337 -0.005310817 25.2818)
(0.6393857 -0.008794522 25.27878)
(0.6271408 -0.01262858 25.2744)
(0.614245 -0.01699647 25.26979)
(0.600554 -0.0220773 25.2654)
(0.585879 -0.02809078 25.26145)
(0.5697922 -0.03522459 25.25815)
(0.5518972 -0.04361891 25.25425)
(0.5336098 -0.05402432 25.25271)
(0.5054551 -0.06640302 25.22793)
(0.4542567 -0.08995491 25.10337)
(0.4978655 -0.144466 23.38717)
(0.320876 -0.01869463 16.91924)
(0.7740725 -0.02919673 24.11365)
(0.9052815 -0.02833555 25.07145)
(0.9037035 -0.02837127 25.37602)
(0.8718827 -0.02967816 25.3572)
(0.850345 -0.0309373 25.33014)
(0.8330299 -0.0319522 25.33)
(0.811582 -0.03230125 25.33455)
(0.7927926 -0.03171203 25.33807)
(0.7797583 -0.03036958 25.34376)
(0.7653739 -0.02866523 25.34069)
(0.7513237 -0.02685252 25.33507)
(0.7394473 -0.02502208 25.33106)
(0.7291071 -0.0231308 25.32647)
(0.7206461 -0.02115569 25.32265)
(0.7126232 -0.01894254 25.31604)
(0.7054804 -0.01648502 25.30906)
(0.6985214 -0.01369411 25.30029)
(0.6920125 -0.01053756 25.29057)
(0.6866642 -0.006974808 25.28128)
(0.6829045 -0.002909023 25.2732)
(0.6808801 0.001808479 25.26627)
(0.6800718 0.007418216 25.26001)
(0.680808 0.01409008 25.25357)
(0.6815311 0.02230635 25.24733)
(0.685312 0.03179564 25.23923)
(0.6861635 0.04414113 25.23444)
(0.693471 0.05617985 25.2162)
(0.6873054 0.07220618 25.18046)
(0.7594363 0.04648053 23.91189)
(0.3204639 -0.0179204 16.86462)
(0.7736748 -0.02790342 24.0546)
(0.897402 -0.03042939 25.41464)
(0.8883409 -0.03073137 25.43033)
(0.8632023 -0.03043709 25.35106)
(0.846542 -0.03001392 25.29077)
(0.8281665 -0.02970061 25.26352)
(0.8115341 -0.02918584 25.25689)
(0.7909585 -0.0285993 25.23453)
(0.7725986 -0.02768048 25.21305)
(0.7578088 -0.02657968 25.20133)
(0.7442011 -0.02539992 25.19148)
(0.7319832 -0.02417328 25.18186)
(0.7212248 -0.02290051 25.17146)
(0.7124076 -0.02156397 25.16165)
(0.7054569 -0.02013682 25.15245)
(0.7001615 -0.01858115 25.14341)
(0.6965259 -0.01684759 25.13463)
(0.6944016 -0.01487957 25.12552)
(0.6938562 -0.012638 25.11594)
(0.6949704 -0.01010149 25.1062)
(0.6981012 -0.007280245 25.09677)
(0.7028766 -0.00412733 25.08779)
(0.7104313 -0.0007578633 25.07929)
(0.7185892 0.003218587 25.07139)
(0.7320421 0.006947054 25.06288)
(0.7420841 0.01258841 25.05652)
(0.7633222 0.01529899 25.0438)
(0.7734411 0.01189426 24.97618)
(0.8466559 -0.05656743 24.59435)
(0.316233 0.01868529 16.90186)
(0.7588905 0.02959737 24.01543)
(0.8643541 0.03348413 25.3361)
(0.8506753 0.03355278 25.40567)
(0.8170137 0.03291293 25.35069)
(0.7957119 0.03142579 25.29114)
(0.7754497 0.02915774 25.26509)
(0.7531662 0.02667633 25.26964)
(0.7270643 0.02531806 25.2562)
(0.704855 0.02429889 25.23972)
(0.684423 0.02330692 25.22313)
(0.6668141 0.02195453 25.21434)
(0.6514384 0.02031942 25.20855)
(0.6377357 0.01839809 25.20342)
(0.6250841 0.01617025 25.19702)
(0.6134893 0.01356132 25.18925)
(0.6036003 0.01036177 25.18256)
(0.5950118 0.006561926 25.17425)
(0.5880654 0.001955739 25.16609)
(0.5831877 -0.003672588 25.15972)
(0.5805328 -0.01050207 25.15528)
(0.5802968 -0.01867514 25.15229)
(0.5822734 -0.02835573 25.15016)
(0.587343 -0.0396678 25.14877)
(0.5942457 -0.05302076 25.14825)
(0.6065318 -0.0681336 25.14776)
(0.6187987 -0.08660285 25.14976)
(0.6402291 -0.1061053 25.13969)
(0.6567261 -0.134069 25.08467)
(0.7497946 -0.05783449 23.74524)
(0.3160613 0.02476545 16.95993)
(0.7571322 0.03673872 24.06804)
(0.8653492 0.04298524 25.33564)
(0.8470752 0.04103142 25.53548)
(0.8184078 0.03585513 25.47633)
(0.7960843 0.02956386 25.42262)
(0.7714839 0.02405983 25.39758)
(0.7437734 0.02014824 25.39272)
(0.7177251 0.0183764 25.38743)
(0.6934919 0.01822349 25.3767)
(0.6694556 0.01853357 25.36755)
(0.6456096 0.01898641 25.36083)
(0.621569 0.02010683 25.34973)
(0.5986317 0.02102379 25.34183)
(0.5757005 0.02225982 25.33192)
(0.550073 0.02532269 25.30568)
(0.5265223 0.02666676 25.29505)
(0.5023309 0.02793775 25.28514)
(0.4768266 0.029641 25.27212)
(0.4500695 0.03143254 25.25896)
(0.4225693 0.03250221 25.25184)
(0.3935894 0.03323955 25.24691)
(0.3626777 0.03347183 25.24421)
(0.3298448 0.03249922 25.2476)
(0.2941654 0.03064736 25.25121)
(0.255862 0.02686399 25.25145)
(0.2103782 0.01706381 25.22647)
(0.1501062 -0.01712138 25.0953)
(0.1263715 -0.1223043 24.42109)
(0.2413589 -0.4209304 20.9874)
(0.3173422 -0.005943839 16.95884)
(0.7598546 -0.01026341 24.07542)
(0.8789287 -0.005997741 25.00692)
(0.900671 -0.005206782 25.30474)
(0.8285419 -0.01165893 25.31713)
(0.8004997 -0.01667688 25.32887)
(0.7786854 -0.02024694 25.35432)
(0.7532213 -0.02099353 25.36814)
(0.7277279 -0.01885851 25.35907)
(0.70539 -0.01597785 25.34623)
(0.6837372 -0.01258125 25.33006)
(0.6629098 -0.008636766 25.31041)
(0.6445653 -0.005287713 25.30015)
(0.627147 -0.001275211 25.2869)
(0.611258 0.002849023 25.27627)
(0.596788 0.007195575 25.26783)
(0.5834131 0.01218388 25.25832)
(0.5712074 0.01820856 25.24574)
(0.5601818 0.02530295 25.23106)
(0.5506899 0.03289529 25.22)
(0.542606 0.04129857 25.21119)
(0.5359395 0.05094931 25.20276)
(0.5306094 0.06211876 25.19401)
(0.5269803 0.07489854 25.18523)
(0.5243959 0.08940637 25.17688)
(0.5250006 0.1052045 25.16847)
(0.5254762 0.1240269 25.15978)
(0.5297682 0.1382025 25.13626)
(0.467483 0.1448804 24.99836)
(0.8297764 0.05452418 23.92205)
(0.3167215 -0.01197834 16.89534)
(0.7591772 -0.01716788 23.99167)
(0.8811315 -0.01684691 24.90064)
(0.9056134 -0.01651183 25.18254)
(0.8299601 -0.01743718 25.21611)
(0.8035017 -0.01755021 25.2101)
(0.7806407 -0.0173667 25.21648)
(0.7569908 -0.01637774 25.21794)
(0.7344802 -0.0147534 25.20607)
(0.7130252 -0.01283542 25.18044)
(0.6929662 -0.01103789 25.15594)
(0.6743211 -0.009303288 25.13149)
(0.6570912 -0.007855528 25.11491)
(0.6411428 -0.006484385 25.10189)
(0.6265633 -0.00488588 25.08641)
(0.613227 -0.003013789 25.06958)
(0.6010185 -0.0008629923 25.05272)
(0.5899768 0.001620545 25.03551)
(0.5802715 0.004517739 25.01744)
(0.5717544 0.00784733 24.99905)
(0.56449 0.01159046 24.98073)
(0.558246 0.01542071 24.96591)
(0.553356 0.01907831 24.95658)
(0.5495811 0.02230479 24.95354)
(0.5466841 0.02557684 24.95344)
(0.5463372 0.02766623 24.9588)
(0.5480232 0.02970566 24.95825)
(0.5487843 0.02584412 24.94661)
(0.4767613 -0.0005925993 24.79664)
(0.8870677 -0.228175 23.64773)
(0.193567 0.001498364 6.894538)
(0.6314254 0.007692213 16.92773)
(0.9735534 0.01294164 23.09025)
(1.14179 0.01299666 24.96181)
(1.272443 0.009979473 25.27505)
(1.324888 0.008206124 25.23716)
(1.365848 0.006577951 25.1426)
(1.40382 0.005531926 25.07454)
(1.443074 0.004956103 25.05967)
(1.485095 0.003783676 25.05523)
(1.528915 0.002209191 25.05073)
(1.574154 0.0004223106 25.04429)
(1.620774 -0.001575624 25.03431)
(1.668739 -0.003536771 25.02772)
(1.718421 -0.00586534 25.01381)
(1.769497 -0.007992791 25.00671)
(1.822449 -0.01025565 24.99817)
(1.877612 -0.01279577 24.98711)
(1.934446 -0.01519171 24.98069)
(1.993477 -0.01746999 24.9779)
(2.054318 -0.01972958 24.97809)
(2.117768 -0.02255913 24.97535)
(2.183343 -0.02640286 24.96645)
(2.252244 -0.03184579 24.95084)
(2.32387 -0.03721651 24.93812)
(2.397871 -0.04702849 24.91534)
(2.48045 -0.05139958 24.9085)
(2.549429 -0.06925067 24.88025)
(2.67237 -0.0705926 24.87702)
(2.616391 -0.08041973 24.53676)
(0.1927317 -0.01917649 7.000728)
(0.6279215 -0.01609107 17.18003)
(0.9590391 -0.00611793 23.36588)
(1.11007 -0.01621445 24.58791)
(1.21188 -0.02403696 25.13696)
(1.275388 -0.03031242 25.2803)
(1.318355 -0.0362198 25.26318)
(1.35255 -0.04194795 25.20504)
(1.39954 -0.04214869 25.22009)
(1.440827 -0.04416074 25.22299)
(1.481886 -0.04888527 25.2037)
(1.523936 -0.05485457 25.17728)
(1.567262 -0.0612007 25.15446)
(1.613198 -0.06619778 25.15383)
(1.656623 -0.07422775 25.12857)
(1.698787 -0.08583451 25.07653)
(1.746177 -0.09413565 25.06392)
(1.795624 -0.101028 25.06825)
(1.844991 -0.1098593 25.06199)
(1.894341 -0.1209228 25.04487)
(1.944738 -0.1323961 25.03113)
(1.995581 -0.145151 25.01495)
(2.047432 -0.1588386 24.99943)
(2.099247 -0.1733852 24.98512)
(2.153145 -0.1896291 24.96654)
(2.202833 -0.2090719 24.94739)
(2.264497 -0.2237577 24.93046)
(2.303329 -0.2586329 24.90296)
(2.409201 -0.2679109 24.78642)
(2.313688 -0.3904594 24.52758)
(0.1885967 -0.0283771 7.038846)
(0.6149061 -0.03269398 17.24763)
(0.9386588 -0.02913398 23.36261)