/*--------------------------------*- C++ -*----------------------------------*\
| =========                 |                                                 |
| \\      /  F ield         | OpenFOAM: The Open Source CFD Toolbox           |
|  \\    /   O peration     | Version:  4.0                                   |
|   \\  /    A nd           | Web:      www.OpenFOAM.org                      |
|    \\/     M anipulation  |                                                 |
\*---------------------------------------------------------------------------*/
FoamFile
{
    version     2.0;
    format      ascii;
    class       volVectorField;
    location    "60/air";
    object      U;
}
// * * * * * * * * * * * * * * * * * * * * * * * * * * * * * * * * * * * * * //

dimensions      [0 1 -1 0 0 0 0];

internalField   nonuniform List<vector> 
39776
(
(0.02223618 0.005804185 0.1645422)
(0.06059432 0.01347821 0.383999)
(0.08844283 0.01879826 0.537271)
(0.1091093 0.02260106 0.64711)
(0.124636 0.02535914 0.7266259)
(0.1345884 0.02723549 0.7839179)
(0.1435036 0.02852516 0.8279221)
(0.1486639 0.02938494 0.8601464)
(0.1520064 0.02993901 0.8835481)
(0.1540892 0.03026151 0.9003303)
(0.1551881 0.03041221 0.9121645)
(0.155598 0.03043687 0.9203036)
(0.1555615 0.03036797 0.9256735)
(0.1552481 0.03023067 0.9289869)
(0.154786 0.03004637 0.9308142)
(0.154287 0.02983326 0.9316121)
(0.1538438 0.02960422 0.931719)
(0.1535277 0.02936772 0.9313819)
(0.1533936 0.02912827 0.9307778)
(0.1534854 0.0288859 0.9300289)
(0.1538423 0.02863425 0.9292078)
(0.154504 0.02835602 0.9283317)
(0.1555182 0.02801427 0.927338)
(0.1569465 0.02753645 0.9260334)
(0.1588621 0.02678629 0.9239962)
(0.1613687 0.02551429 0.9204016)
(0.164718 0.02326214 0.9136985)
(0.1694341 0.01916719 0.9010044)
(0.1756604 0.01163689 0.8770012)
(0.1908851 -0.0007762589 0.8383825)
(0.02264779 0.005638337 0.16993)
(0.06229148 0.01307699 0.4004458)
(0.09211753 0.01821762 0.5638002)
(0.1149023 0.02187131 0.6823608)
(0.1309178 0.02448773 0.769196)
(0.1447655 0.0263914 0.8345404)
(0.1539349 0.02761487 0.8829527)
(0.1604324 0.02840562 0.9185968)
(0.1649818 0.02887998 0.9445207)
(0.1679585 0.02911453 0.9630998)
(0.169723 0.02917189 0.9761793)
(0.1706048 0.02910099 0.9851927)
(0.1708718 0.02893763 0.9912466)
(0.1707332 0.02870791 0.9951888)
(0.170349 0.02843077 0.9976615)
(0.1698418 0.02811937 0.9991451)
(0.1693046 0.0277811 0.9999943)
(0.1688077 0.02741811 1.000469)
(0.1684034 0.02702912 1.000763)
(0.1681338 0.02660964 1.00102)
(0.1680347 0.02615202 1.001347)
(0.1681397 0.02564616 1.001813)
(0.1684868 0.02507936 1.002427)
(0.1691273 0.02443536 1.003086)
(0.1701423 0.02369404 1.003471)
(0.1716346 0.02283297 1.002855)
(0.1736061 0.02182755 0.9997671)
(0.1761797 0.02063541 0.9914114)
(0.1818733 0.01922126 0.9725991)
(0.1943704 0.01788715 0.9335374)
(0.02263621 -0.005876948 0.1700047)
(0.06224205 -0.01364505 0.4006407)
(0.09200504 -0.01902915 0.5640946)
(0.114692 -0.02287347 0.6827383)
(0.1305848 -0.02564978 0.7696477)
(0.1443157 -0.02768858 0.8350264)
(0.1533439 -0.02903548 0.883464)
(0.159667 -0.02994424 0.9191293)
(0.1640307 -0.03053333 0.9450714)
(0.166822 -0.03088227 0.9636733)
(0.1684003 -0.03105553 0.9767876)
(0.1690917 -0.0311033 0.985853)
(0.1691609 -0.0310622 0.9919783)
(0.1688129 -0.03095895 0.9960104)
(0.1682075 -0.03081313 0.9985875)
(0.1674668 -0.03063876 1.000183)
(0.1666765 -0.03044503 1.001144)
(0.1659049 -0.03023702 1.001725)
(0.1652087 -0.0300166 1.002112)
(0.164625 -0.02978324 1.002448)
(0.1641872 -0.0295348 1.002842)
(0.1639345 -0.02926796 1.003363)
(0.1639087 -0.02897891 1.004014)
(0.164161 -0.02866467 1.004676)
(0.1647703 -0.02832692 1.004989)
(0.1658425 -0.02797862 1.004157)
(0.1673945 -0.02764531 1.000599)
(0.1695758 -0.02736319 0.9913632)
(0.1749769 -0.027313 0.971065)
(0.1873363 -0.02814688 0.9297279)
(0.02223198 -0.005758631 0.1646197)
(0.06056897 -0.0133852 0.3841927)
(0.0883739 -0.01868065 0.5375569)
(0.1089795 -0.02246713 0.6474702)
(0.1244323 -0.02520625 0.7270486)
(0.1343034 -0.02705521 0.784399)
(0.1431288 -0.02833832 0.8284434)
(0.1481954 -0.02918659 0.860711)
(0.1514415 -0.02972521 0.8841633)
(0.1534269 -0.03003051 0.9010064)
(0.1544294 -0.03016399 0.9129103)
(0.1547433 -0.0301717 0.9211193)
(0.1546094 -0.03008556 0.9265512)
(0.1541951 -0.02992934 0.9299096)
(0.1536232 -0.02972242 0.9317536)
(0.1529975 -0.0294816 0.9325374)
(0.1524093 -0.02921922 0.9326164)
(0.1519326 -0.02894088 0.9322487)
(0.1516248 -0.02864708 0.9316177)
(0.1515324 -0.02833299 0.9308469)
(0.1516973 -0.02798716 0.9300054)
(0.1521635 -0.02758964 0.9290988)
(0.1529818 -0.02710691 0.9280424)
(0.1542057 -0.02648252 0.9266046)
(0.1558986 -0.02562229 0.924306)
(0.1582508 -0.02436769 0.9202412)
(0.1617535 -0.02243854 0.9127604)
(0.1665409 -0.01932449 0.8989191)
(0.1723481 -0.01420495 0.8735228)
(0.1867353 -0.006557231 0.8328834)
(0.0222339 0.005773442 0.1647736)
(0.06056646 0.01343102 0.384529)
(0.08835001 0.01875026 0.5379976)
(0.1089239 0.02253931 0.6479683)
(0.1243411 0.02524786 0.7275799)
(0.1341783 0.02704827 0.7849585)
(0.1429785 0.02827446 0.8289677)
(0.1480263 0.0290674 0.8612012)
(0.1512637 0.02955326 0.8846267)
(0.1532529 0.02981199 0.9014518)
(0.154272 0.02990869 0.9133439)
(0.1546115 0.02989186 0.9215399)
(0.1545061 0.02979534 0.9269558)
(0.1541197 0.02964426 0.9302978)
(0.1535747 0.02945829 0.93213)
(0.1529781 0.02925423 0.9329116)
(0.152422 0.02904216 0.9329901)
(0.1519786 0.02882395 0.9326191)
(0.1517033 0.02859749 0.9319813)
(0.1516415 0.02835594 0.9312031)
(0.1518341 0.02808499 0.9303596)
(0.1523237 0.02776235 0.9294668)
(0.1531616 0.02735366 0.9284558)
(0.15441 0.02680198 0.9271183)
(0.1561385 0.02600948 0.9250062)
(0.1584581 0.02480645 0.9212509)
(0.1616585 0.02288804 0.9142312)
(0.1662298 0.01967915 0.9009554)
(0.1722282 0.01413822 0.8759477)
(0.1870499 0.005556365 0.8355972)
(0.02265847 0.005740756 0.1702084)
(0.06231091 0.01334423 0.4011071)
(0.09208318 0.01861748 0.5647477)
(0.1146421 0.02236284 0.6835496)
(0.1303967 0.02501881 0.7706135)
(0.1441865 0.02693574 0.8360791)
(0.1533063 0.0281596 0.8845599)
(0.1595741 0.02894031 0.920241)
(0.1638075 0.02939616 0.9461865)
(0.1664686 0.02961163 0.9647997)
(0.1679417 0.02965664 0.9779522)
(0.1685498 0.0295852 0.9870966)
(0.1685482 0.02943632 0.9933493)
(0.1681305 0.02923776 0.997556)
(0.1674579 0.02900868 1.000344)
(0.1666603 0.0287625 1.002165)
(0.165812 0.02850609 1.003338)
(0.1649809 0.02823893 1.004089)
(0.1642395 0.02795753 1.004583)
(0.1636143 0.02765535 1.004949)
(0.1631212 0.02732189 1.005296)
(0.1628057 0.02694543 1.0057)
(0.1627266 0.02651497 1.006175)
(0.1629471 0.02602099 1.006615)
(0.1635543 0.02545691 1.006674)
(0.1646578 0.02482425 1.005565)
(0.1662707 0.02413643 1.001719)
(0.1685464 0.02340979 0.9921902)
(0.1740862 0.02271196 0.9716112)
(0.1866148 0.02251469 0.9300247)
(0.02265673 -0.005771182 0.1702121)
(0.06230357 -0.01341803 0.4011177)
(0.09206683 -0.01872456 0.5647642)
(0.1146143 -0.02249662 0.6835708)
(0.1303556 -0.02517469 0.7706387)
(0.1441308 -0.0271119 0.8361032)
(0.1532344 -0.02835426 0.8845823)
(0.1594846 -0.02915263 0.9202622)
(0.1636999 -0.02962635 0.9462092)
(0.1663428 -0.0298604 0.9648268)
(0.1677978 -0.02992509 0.9779859)
(0.1683878 -0.02987477 0.9871384)
(0.1683676 -0.02974877 0.9933997)
(0.1679306 -0.02957517 0.9976149)
(0.1672377 -0.02937342 1.00041)
(0.1664182 -0.02915716 1.002237)
(0.1655462 -0.02893339 1.003413)
(0.1646896 -0.02870159 1.004166)
(0.1639197 -0.028458 1.00466)
(0.1632629 -0.02819572 1.005028)
(0.1627355 -0.02790358 1.005376)
(0.1623819 -0.02756908 1.005783)
(0.1622606 -0.02718067 1.006264)
(0.1624358 -0.02672879 1.006711)
(0.1629944 -0.02620877 1.006772)
(0.1640474 -0.02562726 1.005655)
(0.1656113 -0.02500516 1.001777)
(0.1678441 -0.0243685 0.9921763)
(0.1733556 -0.02381746 0.9714622)
(0.1858762 -0.02387286 0.929658)
(0.02223367 -0.005773405 0.1647855)
(0.06056388 -0.01343366 0.3845598)
(0.08834153 -0.0187568 0.5380439)
(0.1089068 -0.02254959 0.6480271)
(0.1243134 -0.02526085 0.7276482)
(0.1341387 -0.02706223 0.785034)
(0.1429254 -0.02829362 0.8290474)
(0.1479587 -0.02909106 0.8612835)
(0.1511804 -0.02958074 0.8847102)
(0.1531526 -0.0298427 0.9015357)
(0.1541536 -0.02994215 0.9134276)
(0.1544738 -0.02992754 0.9216231)
(0.1543481 -0.02983266 0.9270384)
(0.15394 -0.02968248 0.9303797)
(0.1533721 -0.02949658 0.9322111)
(0.152751 -0.02929159 0.9329915)
(0.1521688 -0.02907745 0.9330688)
(0.1516972 -0.02885564 0.9326964)
(0.1513918 -0.02862353 0.9320567)
(0.1512979 -0.02837351 0.9312752)
(0.1514563 -0.0280904 0.9304251)
(0.15191 -0.02775106 0.9295194)
(0.1527088 -0.02732057 0.9284844)
(0.1539077 -0.02674295 0.9271052)
(0.1555654 -0.02592499 0.924927)
(0.1578116 -0.02470869 0.9210763)
(0.1610156 -0.02281126 0.9139283)
(0.165611 -0.01969663 0.9004863)
(0.1715264 -0.01441137 0.8752746)
(0.1862374 -0.006341771 0.8346457)
(0.02223241 0.005802942 0.164796)
(0.06055857 0.01350555 0.3845807)
(0.08832714 0.01885448 0.5380694)
(0.1088804 0.02265037 0.648055)
(0.1242757 0.02533775 0.7276776)
(0.1340943 0.02710277 0.7850647)
(0.1428772 0.02830543 0.8290741)
(0.1479094 0.02908288 0.8613057)
(0.1511318 0.02955968 0.8847281)
(0.1531061 0.02981392 0.9015497)
(0.1541102 0.0299092 0.9134381)
(0.1544345 0.02989273 0.9216303)
(0.1543133 0.02979731 0.927043)
(0.1539103 0.02964734 0.930383)
(0.1533484 0.029462 0.9322154)
(0.1527353 0.02925774 0.9329998)
(0.1521628 0.02904422 0.933082)
(0.1517028 0.0288228 0.9327152)
(0.1514106 0.02859122 0.9320819)
(0.1513312 0.02834235 0.9313082)
(0.1515053 0.02806151 0.9304681)
(0.151976 0.02772636 0.9295762)
(0.1527961 0.02730248 0.9285601)
(0.1540312 0.02673334 0.9272061)
(0.1557605 0.02592287 0.9250577)
(0.1581234 0.02470617 0.9212372)
(0.1614506 0.02278984 0.914119)
(0.1661271 0.01962576 0.9007195)
(0.1720466 0.01424108 0.8755936)
(0.1866857 0.005996324 0.8351085)
(0.02265489 0.005782299 0.1702033)
(0.06229042 0.01344826 0.4011016)
(0.09199853 0.01876541 0.5647614)
(0.1144054 0.02252958 0.6836108)
(0.1300465 0.02517233 0.770741)
(0.1438754 0.02706406 0.8362481)
(0.1531256 0.02826344 0.884734)
(0.1594708 0.02902556 0.920399)
(0.1637302 0.02946964 0.9463256)
(0.1663919 0.02967938 0.9649245)
(0.1678563 0.02972374 0.978069)
(0.1684529 0.02965576 0.9872109)
(0.1684391 0.02951365 0.9934644)
(0.1680091 0.02932466 0.9976729)
(0.1673241 0.02910763 1.000462)
(0.1665145 0.02887584 1.002281)
(0.1656524 0.02863601 1.003448)
(0.1648061 0.0283875 1.004191)
(0.1640484 0.02812656 1.004676)
(0.163403 0.0278464 1.005033)
(0.1628865 0.02753606 1.005373)
(0.1625448 0.02718335 1.005772)
(0.1624352 0.02677683 1.006247)
(0.1626222 0.02630641 1.00669)
(0.1631941 0.02576513 1.006751)
(0.164262 0.02515447 1.005639)
(0.16584 0.02448805 1.001776)
(0.1680822 0.02378544 0.9922065)
(0.1735922 0.0231384 0.971551)
(0.1861 0.02305307 0.9298449)
(0.02265464 -0.00578846 0.1702059)
(0.062289 -0.01346345 0.4011083)
(0.09199475 -0.01878837 0.5647712)
(0.1143985 -0.0225601 0.6836231)
(0.1300357 -0.02521044 0.7707553)
(0.14386 -0.02711101 0.8362625)
(0.1531048 -0.02831946 0.884748)
(0.1594435 -0.02909091 0.9204124)
(0.1636957 -0.02954466 0.946339)
(0.1663493 -0.02976427 0.9649384)
(0.1678049 -0.02981843 0.9780847)
(0.1683918 -0.02975987 0.9872299)
(0.1683675 -0.02962644 0.9934885)
(0.1679262 -0.02944496 0.9977042)
(0.1672291 -0.02923386 1.000502)
(0.166406 -0.02900607 1.002332)
(0.1655307 -0.0287681 1.003512)
(0.1646711 -0.02851902 1.004267)
(0.1638989 -0.02825519 1.004764)
(0.1632407 -0.0279699 1.005131)
(0.1627123 -0.02765233 1.005478)
(0.1623589 -0.02729076 1.005882)
(0.1622394 -0.0268743 1.006357)
(0.1624179 -0.02639379 1.006796)
(0.162982 -0.02584398 1.006849)
(0.1640425 -0.02522933 1.005722)
(0.1656138 -0.0245679 1.001834)
(0.1678528 -0.0238831 0.9922251)
(0.1733673 -0.02326188 0.9715086)
(0.1858874 -0.02320458 0.9297136)
(0.02223241 -0.005799387 0.1647951)
(0.06055826 -0.01349747 0.3845797)
(0.08832615 -0.0188434 0.5380693)
(0.1088783 -0.02263723 0.6480564)
(0.1242722 -0.02532301 0.7276807)
(0.1340888 -0.02708666 0.7850694)
(0.1428696 -0.0282871 0.82908)
(0.1478993 -0.0290623 0.8613123)
(0.1511189 -0.02953689 0.8847349)
(0.15309 -0.02978905 0.9015564)
(0.1540908 -0.02988254 0.9134443)
(0.1544115 -0.02986465 0.9216358)
(0.1542866 -0.02976827 0.9270474)
(0.1538798 -0.02961786 0.9303859)
(0.1533137 -0.02943269 0.9322162)
(0.1526958 -0.02922929 0.9329976)
(0.1521181 -0.02901736 0.9330769)
(0.1516523 -0.02879839 0.9327072)
(0.1513538 -0.02856981 0.9320712)
(0.1512678 -0.02832425 0.9312947)
(0.1514351 -0.02804684 0.9304523)
(0.1518989 -0.02771485 0.9295587)
(0.1527113 -0.0272939 0.9285426)
(0.1539347 -0.02672813 0.9271919)
(0.1556384 -0.02592337 0.9250534)
(0.1579435 -0.02471862 0.9212522)
(0.1611679 -0.02282664 0.9141611)
(0.1657623 -0.01970624 0.9007813)
(0.1717098 -0.01438783 0.8756335)
(0.1864389 -0.006244756 0.8350782)
(0.02223258 0.005797321 0.1648055)
(0.06055867 0.01349246 0.3846049)
(0.08832691 0.01883654 0.5381051)
(0.1088795 0.02262964 0.648099)
(0.1242736 0.02531546 0.727727)
(0.1340904 0.02707959 0.7851166)
(0.1428715 0.02828043 0.8291287)
(0.1479014 0.02905623 0.8613612)
(0.1511207 0.02953161 0.8847828)
(0.1530909 0.02978474 0.9016024)
(0.15409 0.02987929 0.913488)
(0.1544084 0.02986243 0.9216775)
(0.154281 0.0297669 0.9270876)
(0.1538718 0.02961709 0.9304251)
(0.1533039 0.02943225 0.9322549)
(0.1526848 0.02922848 0.9330365)
(0.1521068 0.02901533 0.9331165)
(0.1516419 0.02879464 0.9327479)
(0.1513454 0.02856392 0.9321131)
(0.1512628 0.02831577 0.9313376)
(0.1514345 0.02803584 0.9304958)
(0.1519034 0.02770232 0.9296021)
(0.1527209 0.02728126 0.9285851)
(0.1539489 0.02671672 0.9272324)
(0.1556565 0.02591415 0.9250905)
(0.1579642 0.02471209 0.9212845)
(0.1611902 0.0228226 0.9141864)
(0.165785 0.01970334 0.9007965)
(0.1717316 0.01438271 0.8756327)
(0.186459 0.006233953 0.8350449)
(0.02265532 0.00578164 0.1702202)
(0.06229122 0.01344712 0.401143)
(0.09199826 0.01876507 0.5648205)
(0.1144033 0.02253156 0.6836816)
(0.1300418 0.02517777 0.7708186)
(0.143868 0.02707331 0.8363299)
(0.1531147 0.02827681 0.8848168)
(0.1594553 0.02904337 0.9204802)
(0.1637083 0.02949233 0.9464026)
(0.166361 0.02970737 0.9649944)
(0.1678129 0.02975728 0.9781281)
(0.1683936 0.0296948 0.9872546)
(0.1683633 0.02955776 0.9934879)
(0.1679193 0.02937311 0.9976716)
(0.1672196 0.02915949 1.000433)
(0.1663896 0.02892955 1.002227)
(0.1655071 0.02868965 1.003377)
(0.1646388 0.02843942 1.004115)
(0.16385 0.0281752 1.004609)
(0.1631718 0.02789016 1.004989)
(0.1626321 0.02757406 1.005359)
(0.1622784 0.02721581 1.005791)
(0.1621626 0.02680479 1.006296)
(0.1623432 0.02633153 1.006759)
(0.1629064 0.02579026 1.006828)
(0.1639634 0.025185 1.005708)
(0.16553 0.02453365 1.001815)
(0.1677645 0.02386012 0.9921866)
(0.1732766 0.02325298 0.9714324)
(0.1857974 0.02321646 0.9295758)
(0.02265532 -0.00578158 0.1702202)
(0.06229122 -0.01344699 0.401143)
(0.09199827 -0.01876489 0.5648204)
(0.1144033 -0.02253136 0.6836816)
(0.1300418 -0.02517756 0.7708185)
(0.143868 -0.02707311 0.8363298)
(0.1531148 -0.02827661 0.8848168)
(0.1594554 -0.02904318 0.9204802)
(0.1637084 -0.02949215 0.9464026)
(0.1663611 -0.02970718 0.9649944)
(0.167813 -0.02975709 0.9781281)
(0.1683938 -0.02969458 0.9872547)
(0.1683635 -0.02955752 0.9934881)
(0.1679196 -0.02937284 0.9976718)
(0.1672199 -0.02915917 1.000433)
(0.1663899 -0.02892917 1.002227)
(0.1655075 -0.02868922 1.003377)
(0.1646393 -0.02843893 1.004115)
(0.1638505 -0.02817463 1.004609)
(0.1631723 -0.02788953 1.00499)
(0.1626327 -0.02757336 1.00536)
(0.1622791 -0.02721504 1.005792)
(0.1621633 -0.02680394 1.006297)
(0.162344 -0.02633061 1.00676)
(0.1629073 -0.02578926 1.006829)
(0.1639644 -0.02518389 1.005709)
(0.165531 -0.02453242 1.001816)
(0.1677656 -0.02385872 0.9921875)
(0.1732777 -0.02325134 0.9714333)
(0.1857986 -0.02321445 0.929577)
(0.02223259 -0.005797304 0.1648055)
(0.06055868 -0.01349243 0.3846049)
(0.08832693 -0.01883651 0.5381051)
(0.1088795 -0.02262963 0.648099)
(0.1242737 -0.02531547 0.727727)
(0.1340905 -0.02707961 0.7851166)
(0.1428716 -0.02828048 0.8291288)
(0.1479015 -0.0290563 0.8613612)
(0.1511208 -0.0295317 0.8847829)
(0.153091 -0.02978484 0.9016025)
(0.1540901 -0.02987941 0.9134882)
(0.1544085 -0.02986256 0.9216777)
(0.1542811 -0.02976704 0.9270879)
(0.1538719 -0.02961724 0.9304254)
(0.1533041 -0.0294324 0.9322553)
(0.152685 -0.02922863 0.9330371)
(0.152107 -0.02901548 0.9331172)
(0.1516421 -0.02879478 0.9327489)
(0.1513458 -0.02856405 0.9321141)
(0.1512631 -0.02831588 0.9313389)
(0.1514349 -0.02803593 0.9304972)
(0.1519039 -0.02770238 0.9296036)
(0.1527215 -0.02728129 0.9285866)
(0.1539496 -0.0267167 0.927234)
(0.1556572 -0.02591408 0.9250921)
(0.1579651 -0.02471194 0.9212861)
(0.1611911 -0.02282232 0.914188)
(0.1657859 -0.01970283 0.9007979)
(0.1717326 -0.01438175 0.875634)
(0.1864602 -0.006232136 0.8350462)
(0.02223242 0.005799463 0.1647951)
(0.06055828 0.01349766 0.3845795)
(0.0883262 0.01884367 0.5380691)
(0.1088784 0.02263755 0.6480561)
(0.1242723 0.02532337 0.7276803)
(0.134089 0.02708704 0.785069)
(0.1428698 0.02828754 0.8290795)
(0.1478996 0.0290628 0.8613118)
(0.1511192 0.02953745 0.8847344)
(0.1530904 0.02978968 0.9015558)
(0.1540912 0.02988323 0.9134437)
(0.1544119 0.02986541 0.9216352)
(0.154287 0.02976911 0.9270468)
(0.1538802 0.02961878 0.9303852)
(0.1533141 0.02943371 0.9322154)
(0.1526962 0.02923041 0.9329969)
(0.1521184 0.0290186 0.9330761)
(0.1516526 0.02879974 0.9327064)
(0.151354 0.02857127 0.9320702)
(0.151268 0.02832582 0.9312937)
(0.1514352 0.0280485 0.9304511)
(0.1518989 0.0277166 0.9295574)
(0.1527111 0.02729573 0.9285411)
(0.1539344 0.02673002 0.9271902)
(0.155638 0.02592531 0.9250514)
(0.1579429 0.0247206 0.9212499)
(0.1611671 0.02282867 0.9141584)
(0.1657613 0.01970836 0.9007781)
(0.1717086 0.01439014 0.8756295)
(0.1864374 0.006247702 0.8350725)
(0.02265465 0.005788509 0.1702058)
(0.06228903 0.01346352 0.401108)
(0.09199482 0.01878841 0.5647708)
(0.1143986 0.02256008 0.6836226)
(0.1300358 0.02521037 0.7707547)
(0.1438602 0.02711087 0.8362619)
(0.1531051 0.02831928 0.8847474)
(0.1594439 0.02909073 0.9204118)
(0.1636961 0.02954455 0.9463384)
(0.1663498 0.02976426 0.9649379)
(0.1678054 0.02981858 0.9780843)
(0.1683925 0.02976021 0.9872295)
(0.1683681 0.02962699 0.9934882)
(0.1679268 0.02944574 0.9977038)
(0.1672297 0.02923488 1.000502)
(0.1664066 0.02900733 1.002332)
(0.1655312 0.0287696 1.003511)
(0.1646715 0.02852075 1.004266)
(0.1638993 0.02825713 1.004762)
(0.1632409 0.02797204 1.005129)
(0.1627124 0.02765466 1.005476)
(0.1623589 0.02729327 1.005879)
(0.1622393 0.02687699 1.006354)
(0.1624176 0.02639667 1.006792)
(0.1629816 0.02584705 1.006844)
(0.1640419 0.02523264 1.005716)
(0.1656132 0.0245715 1.001827)
(0.167852 0.02388709 0.9922175)
(0.1733665 0.02326637 0.9714997)
(0.1858865 0.02320974 0.9297029)
(0.02265491 -0.005782303 0.1702033)
(0.06229047 -0.01344833 0.4011018)
(0.09199859 -0.01876556 0.5647617)
(0.1144055 -0.0225298 0.6836111)
(0.1300465 -0.0251726 0.7707414)
(0.1438755 -0.0270643 0.8362486)
(0.1531257 -0.02826358 0.8847346)
(0.1594709 -0.0290255 0.9203998)
(0.1637303 -0.02946927 0.9463268)
(0.166392 -0.0296786 0.9649261)
(0.1678565 -0.02972245 0.9780711)
(0.1684532 -0.02965389 0.9872136)
(0.1684395 -0.02951113 0.9934677)
(0.1680096 -0.02932146 0.9976768)
(0.1673249 -0.02910375 1.000466)
(0.1665155 -0.02887129 1.002286)
(0.1656536 -0.02863084 1.003453)
(0.1648076 -0.02838176 1.004196)
(0.1640501 -0.02812036 1.004681)
(0.163405 -0.02783982 1.005038)
(0.1628887 -0.02752922 1.005377)
(0.1625471 -0.02717635 1.005775)
(0.1624378 -0.02676976 1.00625)
(0.1626249 -0.02629936 1.006691)
(0.163197 -0.02575816 1.006751)
(0.164265 -0.0251476 1.005638)
(0.1658431 -0.02448124 1.001773)
(0.1680854 -0.02377863 0.9922019)
(0.1735955 -0.02313152 0.971545)
(0.1861035 -0.02304605 0.9298375)
(0.02223243 -0.005802888 0.164796)
(0.06055861 -0.0135054 0.3845807)
(0.08832715 -0.01885423 0.5380694)
(0.1088804 -0.02265001 0.6480549)
(0.1242756 -0.02533728 0.7276774)
(0.1340941 -0.0271022 0.7850644)
(0.1428769 -0.02830454 0.8290737)
(0.1479091 -0.02908167 0.8613051)
(0.1511315 -0.02955817 0.8847276)
(0.1531058 -0.02981211 0.9015494)
(0.1541102 -0.02990713 0.9134381)
(0.1544348 -0.02989039 0.9216307)
(0.154314 -0.0297947 0.9270435)
(0.1539116 -0.02964441 0.9303834)
(0.1533502 -0.02945874 0.9322156)
(0.1527375 -0.02925414 0.9329993)
(0.1521655 -0.0290403 0.9330809)
(0.1517059 -0.02881865 0.9327136)
(0.1514141 -0.0285869 0.9320799)
(0.1513352 -0.02833795 0.9313058)
(0.1515099 -0.02805714 0.9304656)
(0.1519811 -0.02772209 0.9295737)
(0.1528018 -0.0272984 0.9285577)
(0.1540376 -0.02672951 0.9272037)
(0.1557675 -0.02591935 0.9250554)
(0.1581309 -0.02470296 0.921235)
(0.1614585 -0.02278683 0.9141169)
(0.1661355 -0.01962262 0.9007176)
(0.1720552 -0.01423698 0.8755922)
(0.1866953 -0.005990797 0.8351076)
(0.02223252 0.005774047 0.1647897)
(0.06056027 0.01343382 0.3845671)
(0.08833523 0.01875577 0.5380514)
(0.1088977 0.02254753 0.648034)
(0.1243014 0.02525829 0.7276548)
(0.134124 0.0270597 0.785041)
(0.142907 0.0282912 0.8290552)
(0.1479365 0.02908899 0.8612927)
(0.1511543 0.02957928 0.8847214)
(0.1531225 0.02984206 0.9015494)
(0.1541195 0.02994252 0.913444)
(0.1544356 0.02992913 0.9216422)
(0.1543054 0.02983571 0.9270601)
(0.1538927 0.02968732 0.930404)
(0.1533197 0.02950366 0.9322384)
(0.152693 0.02930155 0.9330226)
(0.1521047 0.02909101 0.9331039)
(0.1516267 0.02887356 0.9327361)
(0.1513146 0.02864677 0.932102)
(0.151214 0.02840324 0.9313275)
(0.1513668 0.02812777 0.9304861)
(0.1518185 0.02779728 0.9295905)
(0.1526264 0.02737652 0.9285659)
(0.1538616 0.02680794 0.9271931)
(0.1556097 0.02599465 0.9250073)
(0.1580258 0.02477195 0.9211192)
(0.1614646 0.02284983 0.9138942)
(0.1662215 0.01969432 0.900361)
(0.1721004 0.01438059 0.8751298)
(0.1866244 0.006314584 0.8345484)
(0.02265674 0.005775985 0.1702166)
(0.06230351 0.01342829 0.4011272)
(0.09206624 0.01873786 0.5647763)
(0.114613 0.02251172 0.6835843)
(0.1303535 0.02519102 0.770653)
(0.1441278 0.02712991 0.8361182)
(0.1532305 0.02837404 0.8845977)
(0.1594798 0.02917438 0.9202779)
(0.1636943 0.02965022 0.9462254)
(0.1663365 0.02988651 0.9648435)
(0.167791 0.02995347 0.9780031)
(0.1683809 0.02990537 0.9871562)
(0.168361 0.02978144 0.9934185)
(0.1679248 0.02960966 0.9976352)
(0.1672333 0.02940937 1.000433)
(0.1664164 0.02919412 1.002263)
(0.1655468 0.02897082 1.003445)
(0.1646925 0.02873891 1.004205)
(0.1639263 0.02849472 1.004709)
(0.1632724 0.02823142 1.005088)
(0.162747 0.02793814 1.005448)
(0.1623964 0.02760269 1.005867)
(0.1622787 0.0272136 1.006359)
(0.162458 0.02676073 1.006813)
(0.163023 0.02623723 1.006878)
(0.1640847 0.02564496 1.005759)
(0.1656563 0.02499846 1.001873)
(0.1678896 0.02432164 0.9922587)
(0.1733879 0.02373159 0.9715268)
(0.1858873 0.02377307 0.9296999)
(0.02265856 -0.005737193 0.1702071)
(0.0623114 -0.01333558 0.4011035)
(0.09208437 -0.01860528 0.5647421)
(0.1146442 -0.02234842 0.6835424)
(0.1304 -0.02500312 0.7706051)
(0.1441912 -0.02691851 0.8360697)
(0.1533126 -0.02814105 0.8845494)
(0.159582 -0.02892057 0.9202293)
(0.1638172 -0.02937548 0.9461738)
(0.1664803 -0.02959022 0.9647857)
(0.1679554 -0.02963476 0.9779361)
(0.1685655 -0.02956316 0.9870773)
(0.1685658 -0.02941453 0.9933253)
(0.1681497 -0.02921672 0.9975256)
(0.1674786 -0.02898894 1.000305)
(0.1666821 -0.02874471 1.002116)
(0.1658345 -0.028491 1.003277)
(0.1650042 -0.02822722 1.004014)
(0.164263 -0.02794996 1.004495)
(0.1636377 -0.02765269 1.004848)
(0.1631449 -0.0273247 1.005184)
(0.1628294 -0.0269542 1.005579)
(0.1627499 -0.0265301 1.00605)
(0.1629707 -0.02604266 1.006489)
(0.1635784 -0.02548519 1.006551)
(0.1646823 -0.02485926 1.005451)
(0.1662953 -0.02417834 1.001617)
(0.1685708 -0.02345836 0.9921043)
(0.1741094 -0.02276613 0.971546)
(0.1866356 -0.02257405 0.929986)
(0.02223402 -0.005774097 0.164773)
(0.06056681 -0.01343264 0.3845276)
(0.08835073 -0.01875269 0.5379956)
(0.108925 -0.02254244 0.6479659)
(0.1243427 -0.02525159 0.7275772)
(0.1341802 -0.02705246 0.7849554)
(0.1429809 -0.02827922 0.8289644)
(0.148029 -0.02907274 0.8611975)
(0.1512668 -0.02955922 0.8846224)
(0.1532562 -0.02981857 0.9014467)
(0.1542754 -0.02991591 0.9133377)
(0.154615 -0.02989967 0.9215326)
(0.1545096 -0.02980362 0.9269473)
(0.1541232 -0.02965277 0.930288)
(0.1535783 -0.02946674 0.9321189)
(0.1529818 -0.02926222 0.9328993)
(0.1524262 -0.02904919 0.9329764)
(0.1519833 -0.02882945 0.932604)
(0.1517088 -0.02860089 0.9319646)
(0.151648 -0.02835664 0.9311848)
(0.1518418 -0.02808252 0.9303397)
(0.1523328 -0.02775639 0.9294456)
(0.1531723 -0.02734405 0.9284336)
(0.1544223 -0.02678881 0.9270957)
(0.1561524 -0.02599314 0.9249836)
(0.1584735 -0.02478754 0.9212289)
(0.161675 -0.02286728 0.9142105)
(0.1662468 -0.01965721 0.9009368)
(0.172245 -0.01411547 0.8759322)
(0.1870668 -0.005530917 0.8355855)
(0.02223198 0.005758668 0.1646194)
(0.06056896 0.0133853 0.384192)
(0.08837386 0.01868081 0.5375558)
(0.1089794 0.02246734 0.6474688)
(0.1244322 0.02520651 0.7270471)
(0.1343032 0.02705551 0.7843974)
(0.1431285 0.02833866 0.8284416)
(0.1481951 0.02918697 0.860709)
(0.1514411 0.02972564 0.8841613)
(0.1534266 0.03003099 0.9010043)
(0.1544291 0.03016452 0.9129082)
(0.154743 0.03017229 0.9211173)
(0.1546091 0.0300862 0.9265492)
(0.1541947 0.02993002 0.9299075)
(0.1536229 0.02972315 0.9317515)
(0.1529971 0.02948236 0.9325352)
(0.1524089 0.02922001 0.9326141)
(0.1519321 0.0289417 0.9322463)
(0.1516242 0.02864794 0.9316152)
(0.1515317 0.02833388 0.9308444)
(0.1516965 0.02798807 0.9300029)
(0.1521625 0.02759056 0.9290963)
(0.1529807 0.02710782 0.9280399)
(0.1542045 0.02648339 0.9266022)
(0.1558973 0.02562307 0.9243037)
(0.1582494 0.02436834 0.9202388)
(0.1617519 0.022439 0.9127581)
(0.1665392 0.01932472 0.8989168)
(0.1723462 0.01420497 0.8735205)
(0.1867336 0.00655697 0.832881)
(0.02263621 0.005876903 0.1700043)
(0.06224204 0.01364497 0.4006397)
(0.09200502 0.01902907 0.5640932)
(0.114692 0.02287342 0.6827365)
(0.1305847 0.02564977 0.7696456)
(0.1443156 0.02768862 0.8350239)
(0.1533439 0.02903557 0.8834611)
(0.159667 0.02994439 0.919126)
(0.1640307 0.03053354 0.9450678)
(0.1668221 0.03088255 0.9636692)
(0.1684005 0.03105588 0.9767831)
(0.1690919 0.03110372 0.985848)
(0.1691611 0.03106269 0.9919727)
(0.1688131 0.03095953 0.9960043)
(0.1682077 0.03081379 0.9985808)
(0.167467 0.03063951 1.000176)
(0.1666767 0.03044588 1.001136)
(0.1659051 0.03023796 1.001716)
(0.1652088 0.03001763 1.002103)
(0.1646251 0.02978437 1.002439)
(0.1641872 0.02953601 1.002833)
(0.1639345 0.02926926 1.003353)
(0.1639086 0.02898027 1.004005)
(0.1641608 0.02866608 1.004667)
(0.16477 0.02832835 1.00498)
(0.1658422 0.02798007 1.004149)
(0.1673942 0.02764679 1.000592)
(0.1695755 0.02736476 0.9913569)
(0.1749766 0.02731488 0.9710596)
(0.187336 0.02814945 0.9297235)
(0.02264779 -0.005638399 0.1699297)
(0.06229145 -0.01307714 0.400445)
(0.09211745 -0.01821783 0.563799)
(0.1149022 -0.02187157 0.6823593)
(0.1309176 -0.02448802 0.7691942)
(0.1447653 -0.02639172 0.8345381)
(0.1539347 -0.02761523 0.88295)
(0.1604322 -0.02840604 0.9185936)
(0.1649816 -0.02888044 0.9445169)
(0.1679582 -0.02911504 0.9630951)
(0.1697228 -0.02917246 0.9761738)
(0.1706044 -0.02910162 0.9851861)
(0.1708714 -0.02893832 0.9912389)
(0.1707326 -0.02870866 0.99518)
(0.1703483 -0.02843158 0.9976516)
(0.1698409 -0.02812021 0.9991341)
(0.1693036 -0.02778194 0.9999824)
(0.1688065 -0.02741894 1.000457)
(0.1684021 -0.0270299 1.00075)
(0.1681323 -0.02661034 1.001006)
(0.1680331 -0.02615261 1.001333)
(0.168138 -0.02564663 1.001799)
(0.1684851 -0.02507969 1.002414)
(0.1691255 -0.02443555 1.003074)
(0.1701405 -0.02369408 1.00346)
(0.1716329 -0.02283287 1.002844)
(0.1736044 -0.02182728 0.9997577)
(0.1761781 -0.02063493 0.9914032)
(0.1818719 -0.01922047 0.9725922)
(0.1943693 -0.01788585 0.9335319)
(0.02223617 -0.005804159 0.1645419)
(0.06059431 -0.01347815 0.3839983)
(0.08844279 -0.01879819 0.5372699)
(0.1091093 -0.02260099 0.6471086)
(0.1246358 -0.02535907 0.7266242)
(0.1345883 -0.02723542 0.7839161)
(0.1435034 -0.0285251 0.8279201)
(0.1486637 -0.02938488 0.8601443)
(0.1520062 -0.02993897 0.8835458)
(0.154089 -0.03026149 0.9003279)
(0.1551879 -0.0304122 0.9121621)
(0.1555978 -0.03043688 0.9203012)
(0.1555614 -0.03036798 0.925671)
(0.155248 -0.03023067 0.9289843)
(0.1547859 -0.03004633 0.9308112)
(0.1542869 -0.02983317 0.9316087)
(0.1538436 -0.02960406 0.9317152)
(0.1535275 -0.02936747 0.9313777)
(0.1533932 -0.02912792 0.9307733)
(0.153485 -0.02888545 0.9300241)
(0.1538418 -0.0286337 0.9292029)
(0.1545034 -0.02835538 0.9283268)
(0.1555176 -0.02801354 0.9273332)
(0.1569458 -0.02753565 0.9260288)
(0.1588614 -0.02678543 0.9239919)
(0.161368 -0.0255134 0.9203976)
(0.1647173 -0.02326125 0.913695)
(0.1694334 -0.01916633 0.9010015)
(0.1756598 -0.01163611 0.876999)
(0.1908846 0.0007769793 0.8383813)
(0.0009476297 0.003526189 0.09635142)
(0.004106795 0.009511206 0.2633755)
(0.008720943 0.01452653 0.4068208)
(0.01332607 0.01864231 0.528582)
(0.01727081 0.02194526 0.6306281)
(0.02175139 0.02463797 0.7150357)
(0.02313569 0.02669182 0.7808899)
(0.02496668 0.02817298 0.8331245)
(0.02584659 0.02913482 0.8735358)
(0.02584045 0.02964938 0.9037885)
(0.02515361 0.02979371 0.9254098)
(0.02387468 0.02965806 0.9401485)
(0.02215234 0.02936512 0.9502098)
(0.02009868 0.02898952 0.9567767)
(0.01782454 0.02855495 0.9602773)
(0.01534606 0.02802733 0.9606504)
(0.01277469 0.0274147 0.9585407)
(0.01017263 0.02670909 0.9544438)
(0.007601585 0.02588535 0.9487063)
(0.00512893 0.02489946 0.9415286)
(0.002827946 0.02368691 0.9329647)
(0.0007791632 0.02216133 0.9229213)
(-0.0009282586 0.0202132 0.9111536)
(-0.002185471 0.01770909 0.8972597)
(-0.002843263 0.014491 0.8806779)
(-0.002769911 0.01037684 0.8606907)
(-0.0020955 0.005171712 0.8364447)
(-0.0009304479 -0.001297118 0.8069997)
(0.003212553 -0.009179103 0.7714474)
(0.006937872 -0.01978835 0.7241153)
(0.001105187 0.003366534 0.1086582)
(0.004877087 0.009088769 0.3011477)
(0.0104806 0.01388972 0.4688024)
(0.01638496 0.01783417 0.6123468)
(0.02318371 0.02100465 0.7332266)
(0.02712676 0.02343946 0.8318034)
(0.03148821 0.02535565 0.9118124)
(0.03463761 0.02669542 0.975504)