/*--------------------------------*- C++ -*----------------------------------*\
| =========                 |                                                 |
| \\      /  F ield         | OpenFOAM: The Open Source CFD Toolbox           |
|  \\    /   O peration     | Version:  4.0                                   |
|   \\  /    A nd           | Web:      www.OpenFOAM.org                      |
|    \\/     M anipulation  |                                                 |
\*---------------------------------------------------------------------------*/
FoamFile
{
    version     2.0;
    format      ascii;
    class       volScalarField;
    location    "60/air";
    object      XH2Oair;
}
// * * * * * * * * * * * * * * * * * * * * * * * * * * * * * * * * * * * * * //

dimensions      [0 0 0 0 0 0 0];

internalField   nonuniform List<scalar> 
39776
(
0.2204165
0.2204165
0.2204165
0.2204165
0.2204165
0.2204165
0.2204165
0.2204165
0.2204165
0.2204165
0.2204166
0.2204166
0.2204167
0.2204168
0.2204169
0.2204171
0.2204174
0.2204178
0.2204183
0.220419
0.2204201
0.2204216
0.2204238
0.220427
0.2204316
0.2204382
0.2204479
0.2204621
0.220483
0.220514
0.2204164
0.2204164
0.2204164
0.2204165
0.2204165
0.2204165
0.2204165
0.2204165
0.2204165
0.2204165
0.2204165
0.2204166
0.2204166
0.2204167
0.2204168
0.2204169
0.2204171
0.2204173
0.2204177
0.2204182
0.2204189
0.2204199
0.2204213
0.2204233
0.2204262
0.2204303
0.2204363
0.2204449
0.2204575
0.2204758
0.2204164
0.2204164
0.2204164
0.2204165
0.2204165
0.2204165
0.2204165
0.2204165
0.2204165
0.2204165
0.2204165
0.2204166
0.2204166
0.2204167
0.2204168
0.2204169
0.2204171
0.2204173
0.2204177
0.2204182
0.2204189
0.22042
0.2204214
0.2204235
0.2204265
0.2204308
0.220437
0.2204459
0.2204589
0.2204778
0.2204165
0.2204165
0.2204165
0.2204165
0.2204165
0.2204165
0.2204165
0.2204165
0.2204165
0.2204165
0.2204166
0.2204166
0.2204167
0.2204168
0.2204169
0.2204171
0.2204174
0.2204177
0.2204182
0.2204189
0.22042
0.2204214
0.2204235
0.2204265
0.2204309
0.2204371
0.2204462
0.2204596
0.2204791
0.220508
0.2204165
0.2204165
0.2204165
0.2204165
0.2204165
0.2204165
0.2204165
0.2204165
0.2204165
0.2204165
0.2204166
0.2204166
0.2204167
0.2204168
0.2204169
0.2204171
0.2204173
0.2204177
0.2204182
0.2204189
0.2204199
0.2204213
0.2204234
0.2204263
0.2204306
0.2204367
0.2204457
0.2204587
0.2204779
0.2205063
0.2204164
0.2204164
0.2204164
0.2204165
0.2204165
0.2204165
0.2204165
0.2204165
0.2204165
0.2204165
0.2204165
0.2204166
0.2204166
0.2204167
0.2204168
0.2204169
0.2204171
0.2204173
0.2204177
0.2204182
0.2204189
0.22042
0.2204214
0.2204235
0.2204265
0.2204308
0.220437
0.2204459
0.2204589
0.2204777
0.2204164
0.2204164
0.2204164
0.2204165
0.2204165
0.2204165
0.2204165
0.2204165
0.2204165
0.2204165
0.2204165
0.2204166
0.2204166
0.2204167
0.2204168
0.2204169
0.2204171
0.2204173
0.2204177
0.2204182
0.220419
0.22042
0.2204215
0.2204236
0.2204266
0.2204309
0.2204371
0.2204461
0.2204591
0.2204781
0.2204165
0.2204165
0.2204165
0.2204165
0.2204165
0.2204165
0.2204165
0.2204165
0.2204165
0.2204165
0.2204166
0.2204166
0.2204167
0.2204168
0.2204169
0.2204171
0.2204173
0.2204177
0.2204182
0.2204189
0.22042
0.2204214
0.2204235
0.2204265
0.2204308
0.220437
0.220446
0.2204592
0.2204786
0.2205072
0.2204165
0.2204165
0.2204165
0.2204165
0.2204165
0.2204165
0.2204165
0.2204165
0.2204165
0.2204165
0.2204166
0.2204166
0.2204167
0.2204168
0.2204169
0.2204171
0.2204173
0.2204177
0.2204182
0.2204189
0.2204199
0.2204214
0.2204234
0.2204264
0.2204307
0.2204369
0.2204459
0.220459
0.2204783
0.2205067
0.2204164
0.2204164
0.2204164
0.2204165
0.2204165
0.2204165
0.2204165
0.2204165
0.2204165
0.2204165
0.2204165
0.2204166
0.2204166
0.2204167
0.2204168
0.2204169
0.2204171
0.2204173
0.2204177
0.2204182
0.220419
0.22042
0.2204215
0.2204236
0.2204266
0.2204309
0.2204371
0.220446
0.220459
0.2204779
0.2204164
0.2204164
0.2204164
0.2204165
0.2204165
0.2204165
0.2204165
0.2204165
0.2204165
0.2204165
0.2204165
0.2204166
0.2204166
0.2204167
0.2204168
0.2204169
0.2204171
0.2204173
0.2204177
0.2204182
0.220419
0.22042
0.2204215
0.2204236
0.2204266
0.2204309
0.2204371
0.2204461
0.2204591
0.220478
0.2204165
0.2204165
0.2204165
0.2204165
0.2204165
0.2204165
0.2204165
0.2204165
0.2204165
0.2204165
0.2204166
0.2204166
0.2204167
0.2204168
0.2204169
0.2204171
0.2204173
0.2204177
0.2204182
0.2204189
0.2204199
0.2204214
0.2204235
0.2204264
0.2204307
0.2204369
0.2204459
0.2204591
0.2204784
0.2205069
0.2204165
0.2204165
0.2204165
0.2204165
0.2204165
0.2204165
0.2204165
0.2204165
0.2204165
0.2204165
0.2204166
0.2204166
0.2204167
0.2204168
0.2204169
0.2204171
0.2204173
0.2204177
0.2204182
0.2204189
0.2204199
0.2204214
0.2204235
0.2204264
0.2204307
0.2204369
0.2204459
0.2204591
0.2204784
0.2205069
0.2204164
0.2204164
0.2204164
0.2204165
0.2204165
0.2204165
0.2204165
0.2204165
0.2204165
0.2204165
0.2204165
0.2204166
0.2204166
0.2204167
0.2204168
0.2204169
0.2204171
0.2204173
0.2204177
0.2204182
0.220419
0.22042
0.2204215
0.2204236
0.2204266
0.2204309
0.2204371
0.2204461
0.2204591
0.2204781
0.2204164
0.2204164
0.2204164
0.2204165
0.2204165
0.2204165
0.2204165
0.2204165
0.2204165
0.2204165
0.2204165
0.2204166
0.2204166
0.2204167
0.2204168
0.2204169
0.2204171
0.2204173
0.2204177
0.2204182
0.220419
0.22042
0.2204215
0.2204236
0.2204266
0.2204309
0.2204371
0.2204461
0.2204591
0.2204781
0.2204165
0.2204165
0.2204165
0.2204165
0.2204165
0.2204165
0.2204165
0.2204165
0.2204165
0.2204165
0.2204166
0.2204166
0.2204167
0.2204168
0.2204169
0.2204171
0.2204173
0.2204177
0.2204182
0.2204189
0.2204199
0.2204214
0.2204235
0.2204264
0.2204307
0.2204369
0.2204459
0.2204591
0.2204784
0.2205069
0.2204165
0.2204165
0.2204165
0.2204165
0.2204165
0.2204165
0.2204165
0.2204165
0.2204165
0.2204165
0.2204166
0.2204166
0.2204167
0.2204168
0.2204169
0.2204171
0.2204173
0.2204177
0.2204182
0.2204189
0.2204199
0.2204214
0.2204235
0.2204264
0.2204307
0.2204369
0.2204459
0.2204591
0.2204784
0.220507
0.2204164
0.2204164
0.2204164
0.2204165
0.2204165
0.2204165
0.2204165
0.2204165
0.2204165
0.2204165
0.2204165
0.2204166
0.2204166
0.2204167
0.2204168
0.2204169
0.2204171
0.2204173
0.2204177
0.2204182
0.220419
0.22042
0.2204215
0.2204236
0.2204266
0.2204309
0.2204371
0.2204461
0.2204591
0.2204781
0.2204164
0.2204164
0.2204164
0.2204165
0.2204165
0.2204165
0.2204165
0.2204165
0.2204165
0.2204165
0.2204165
0.2204166
0.2204166
0.2204167
0.2204168
0.2204169
0.2204171
0.2204173
0.2204177
0.2204182
0.220419
0.22042
0.2204215
0.2204236
0.2204266
0.2204309
0.2204371
0.220446
0.220459
0.220478
0.2204165
0.2204165
0.2204165
0.2204165
0.2204165
0.2204165
0.2204165
0.2204165
0.2204165
0.2204165
0.2204166
0.2204166
0.2204167
0.2204168
0.2204169
0.2204171
0.2204173
0.2204177
0.2204182
0.2204189
0.2204199
0.2204214
0.2204234
0.2204264
0.2204307
0.2204369
0.2204459
0.220459
0.2204783
0.2205068
0.2204165
0.2204165
0.2204165
0.2204165
0.2204165
0.2204165
0.2204165
0.2204165
0.2204165
0.2204165
0.2204166
0.2204166
0.2204167
0.2204168
0.2204169
0.2204171
0.2204173
0.2204177
0.2204182
0.2204189
0.22042
0.2204214
0.2204235
0.2204265
0.2204308
0.220437
0.2204461
0.2204593
0.2204787
0.2205073
0.2204164
0.2204164
0.2204164
0.2204165
0.2204165
0.2204165
0.2204165
0.2204165
0.2204165
0.2204165
0.2204165
0.2204166
0.2204166
0.2204167
0.2204168
0.2204169
0.2204171
0.2204173
0.2204177
0.2204182
0.220419
0.22042
0.2204215
0.2204236
0.2204266
0.2204309
0.2204372
0.2204462
0.2204592
0.2204782
0.2204164
0.2204164
0.2204164
0.2204165
0.2204165
0.2204165
0.2204165
0.2204165
0.2204165
0.2204165
0.2204165
0.2204166
0.2204166
0.2204167
0.2204168
0.2204169
0.2204171
0.2204173
0.2204177
0.2204182
0.2204189
0.22042
0.2204214
0.2204235
0.2204265
0.2204308
0.220437
0.2204459
0.2204588
0.2204777
0.2204165
0.2204165
0.2204165
0.2204165
0.2204165
0.2204165
0.2204165
0.2204165
0.2204165
0.2204165
0.2204166
0.2204166
0.2204167
0.2204168
0.2204169
0.2204171
0.2204173
0.2204177
0.2204182
0.2204189
0.2204199
0.2204213
0.2204234
0.2204263
0.2204306
0.2204367
0.2204456
0.2204587
0.2204779
0.2205062
0.2204165
0.2204165
0.2204165
0.2204165
0.2204165
0.2204165
0.2204165
0.2204165
0.2204165
0.2204165
0.2204166
0.2204166
0.2204167
0.2204168
0.2204169
0.2204171
0.2204174
0.2204177
0.2204182
0.2204189
0.22042
0.2204214
0.2204235
0.2204265
0.2204308
0.2204371
0.2204462
0.2204595
0.220479
0.2205079
0.2204164
0.2204164
0.2204164
0.2204165
0.2204165
0.2204165
0.2204165
0.2204165
0.2204165
0.2204165
0.2204165
0.2204166
0.2204166
0.2204167
0.2204168
0.2204169
0.2204171
0.2204173
0.2204177
0.2204182
0.2204189
0.22042
0.2204214
0.2204235
0.2204265
0.2204308
0.2204369
0.2204459
0.2204588
0.2204777
0.2204164
0.2204164
0.2204164
0.2204165
0.2204165
0.2204165
0.2204165
0.2204165
0.2204165
0.2204165
0.2204165
0.2204166
0.2204166
0.2204167
0.2204168
0.2204169
0.2204171
0.2204173
0.2204177
0.2204182
0.2204189
0.2204199
0.2204213
0.2204233
0.2204261
0.2204303
0.2204362
0.2204448
0.2204573
0.2204755
0.2204165
0.2204165
0.2204165
0.2204165
0.2204165
0.2204165
0.2204165
0.2204165
0.2204165
0.2204165
0.2204166
0.2204166
0.2204167
0.2204168
0.2204169
0.2204171
0.2204174
0.2204178
0.2204183
0.220419
0.2204201
0.2204216
0.2204238
0.220427
0.2204315
0.2204381
0.2204477
0.2204619
0.2204827
0.2205135
0.2204171
0.2204171
0.2204171
0.2204172
0.2204172
0.2204173
0.2204175
0.2204177
0.220418
0.2204184
0.2204189
0.2204196
0.2204205
0.2204217
0.2204233
0.2204253
0.220428
0.2204314
0.2204359
0.2204416
0.220449
0.2204584
0.2204703
0.2204855
0.2205045
0.2205285
0.2205584
0.2205957
0.2206418
0.2206981
0.2204169
0.2204169
0.2204169
0.2204169
0.220417
0.220417
0.2204171
0.2204173
0.2204174
0.2204177
0.220418
0.2204184
0.220419
0.2204197
0.2204207
0.2204219
0.2204236
0.2204257
0.2204285
0.2204321
0.2204368
0.2204427
0.2204503
0.2204599
0.220472
0.2204873
0.2205064
0.2205302
0.2205594
0.2205949
0.2204169
0.2204169
0.2204169
0.2204169
0.220417
0.220417
0.2204171
0.2204173
0.2204174
0.2204177
0.220418
0.2204184
0.220419
0.2204197
0.2204207
0.220422
0.2204237
0.2204259
0.2204288
0.2204324
0.2204372
0.2204433
0.220451
0.2204608
0.2204733
0.2204889
0.2205084
0.2205326
0.2205623
0.2205983
0.2204171
0.2204171
0.2204171
0.2204172
0.2204172
0.2204173
0.2204175
0.2204177
0.2204179
0.2204183
0.2204188
0.2204195
0.2204204
0.2204215
0.220423
0.220425
0.2204276
0.2204309
0.2204352
0.2204407
0.2204477
0.2204567
0.2204681
0.2204825
0.2205007
0.2205234
0.2205517
0.2205868
0.2206301
0.2206829
0.2204171
0.2204171
0.2204171
0.2204171
0.2204172
0.2204173
0.2204174
0.2204176
0.2204179
0.2204183
0.2204188
0.2204194
0.2204203
0.2204214
0.2204229
0.2204248
0.2204273
0.2204305
0.2204347
0.2204401
0.220447
0.2204557
0.2204669
0.2204809
0.2204986
0.2205208
0.2205485
0.2205828
0.2206252
0.2206768
0.2204169
0.2204169
0.2204169
0.2204169
0.220417
0.220417
0.2204171
0.2204172
0.2204174
0.2204176
0.220418
0.2204184
0.2204189
0.2204197
0.2204206
0.2204219
0.2204236
0.2204257
0.2204285
0.2204321
0.2204368
0.2204428
0.2204504
0.2204601
0.2204723
0.2204878
0.220507
0.2205309
0.2205603
0.220596
0.2204169
0.2204169
0.2204169
0.2204169
0.220417
0.220417
0.2204171
0.2204172
0.2204174
0.2204176
0.220418
0.2204184
0.2204189
0.2204197
0.2204207
0.2204219
0.2204236
0.2204258
0.2204286
0.2204323
0.220437
0.220443
0.2204507
0.2204604
0.2204728
0.2204883
0.2205077
0.2205317
0.2205613
0.2205971
0.2204171
0.2204171
0.2204171
0.2204171
0.2204172
0.2204173
0.2204174
0.2204176
0.2204179
0.2204183
0.2204188
0.2204194
0.2204203
0.2204215
0.2204229
0.2204249
0.2204274
0.2204307
0.2204349
0.2204404
0.2204473
0.2204562
0.2204675
0.2204817
0.2204996
0.220522
0.22055
0.2205847
0.2206275
0.2206797
0.2204171
0.2204171
0.2204171
0.2204171
0.2204172
0.2204173
0.2204174
0.2204176
0.2204179
0.2204183
0.2204188
0.2204194
0.2204203
0.2204214
0.2204229
0.2204249
0.2204274
0.2204306
0.2204349
0.2204403
0.2204472
0.220456
0.2204672
0.2204814
0.2204992
0.2205216
0.2205494
0.220584
0.2206265
0.2206785
0.2204169
0.2204169
0.2204169
0.2204169
0.220417
0.220417
0.2204171
0.2204172
0.2204174
0.2204176
0.220418
0.2204184
0.2204189
0.2204197
0.2204207
0.2204219
0.2204236
0.2204258
0.2204286
0.2204322
0.2204369
0.2204429
0.2204506
0.2204603
0.2204727
0.2204882
0.2205075
0.2205315
0.220561
0.2205968
0.2204169
0.2204169
0.2204169
0.2204169
0.220417
0.220417
0.2204171
0.2204172
0.2204174
0.2204176
0.220418
0.2204184
0.2204189
0.2204197
0.2204207
0.2204219
0.2204236
0.2204258
0.2204286
0.2204323
0.220437
0.220443
0.2204507
0.2204604
0.2204728
0.2204883
0.2205077
0.2205317
0.2205612
0.2205971
0.2204171
0.2204171
0.2204171
0.2204171
0.2204172
0.2204173
0.2204174
0.2204176
0.2204179
0.2204183
0.2204188
0.2204194
0.2204203
0.2204214
0.2204229
0.2204249
0.2204274
0.2204307
0.2204349
0.2204403
0.2204473
0.2204561
0.2204674
0.2204816
0.2204995
0.2205219
0.2205498
0.2205844
0.2206271
0.2206792
0.2204171
0.2204171
0.2204171
0.2204171
0.2204172
0.2204173
0.2204174
0.2204176
0.2204179
0.2204183
0.2204188
0.2204194
0.2204203
0.2204214
0.2204229
0.2204249
0.2204274
0.2204307
0.2204349
0.2204403
0.2204473
0.2204561
0.2204674
0.2204816
0.2204994
0.2205218
0.2205497
0.2205843
0.220627
0.2206791
0.2204169
0.2204169
0.2204169
0.2204169
0.220417
0.220417
0.2204171
0.2204172
0.2204174
0.2204176
0.220418
0.2204184
0.2204189
0.2204197
0.2204207
0.2204219
0.2204236
0.2204258
0.2204286
0.2204323
0.220437
0.220443
0.2204507
0.2204604
0.2204728
0.2204883
0.2205077
0.2205317
0.2205612
0.2205971
0.2204169
0.2204169
0.2204169
0.2204169
0.220417
0.220417
0.2204171
0.2204172
0.2204174
0.2204176
0.220418
0.2204184
0.2204189
0.2204197
0.2204207
0.2204219
0.2204236
0.2204258
0.2204286
0.2204323
0.220437
0.220443
0.2204507
0.2204604
0.2204728
0.2204883
0.2205077
0.2205317
0.2205612
0.2205971
0.2204171
0.2204171
0.2204171
0.2204171
0.2204172
0.2204173
0.2204174
0.2204176
0.2204179
0.2204183
0.2204188
0.2204194
0.2204203
0.2204214
0.2204229
0.2204249
0.2204274
0.2204307
0.2204349
0.2204403
0.2204473
0.2204561
0.2204674
0.2204816
0.2204994
0.2205218
0.2205497
0.2205843
0.220627
0.2206791
0.2204171
0.2204171
0.2204171
0.2204171
0.2204172
0.2204173
0.2204174
0.2204176
0.2204179
0.2204183
0.2204188
0.2204194
0.2204203
0.2204214
0.2204229
0.2204249
0.2204274
0.2204307
0.2204349
0.2204403
0.2204473
0.2204561
0.2204674
0.2204816
0.2204995
0.2205218
0.2205498
0.2205844
0.2206271
0.2206792
0.2204169
0.2204169
0.2204169
0.2204169
0.220417
0.220417
0.2204171
0.2204172
0.2204174
0.2204176
0.220418
0.2204184
0.2204189
0.2204197
0.2204207
0.2204219
0.2204236
0.2204258
0.2204286
0.2204323
0.220437
0.220443
0.2204507
0.2204604
0.2204728
0.2204883
0.2205077
0.2205317
0.2205612
0.220597
0.2204169
0.2204169
0.2204169
0.2204169
0.220417
0.220417
0.2204171
0.2204172
0.2204174
0.2204176
0.220418
0.2204184
0.2204189
0.2204197
0.2204207
0.2204219
0.2204236
0.2204258
0.2204286
0.2204322
0.2204369
0.2204429
0.2204506
0.2204604
0.2204727
0.2204882
0.2205075
0.2205315
0.220561
0.2205968
0.2204171
0.2204171
0.2204171
0.2204171
0.2204172
0.2204173
0.2204174
0.2204176
0.2204179
0.2204183
0.2204188
0.2204194
0.2204203
0.2204214
0.2204229
0.2204249
0.2204274
0.2204306
0.2204349
0.2204403
0.2204472
0.220456
0.2204673
0.2204814
0.2204993
0.2205216
0.2205495
0.220584
0.2206266
0.2206786
0.2204171
0.2204171
0.2204171
0.2204171
0.2204172
0.2204173
0.2204174
0.2204176
0.2204179
0.2204183
0.2204188
0.2204194
0.2204203
0.2204215
0.220423
0.2204249
0.2204274
0.2204307
0.2204349
0.2204404
0.2204474
0.2204562
0.2204675
0.2204818
0.2204997
0.2205221
0.2205501
0.2205849
0.2206277
0.2206799
0.2204169
0.2204169
0.2204169
0.2204169
0.220417
0.220417
0.2204171
0.2204172
0.2204174
0.2204176
0.220418
0.2204184
0.220419
0.2204197
0.2204207
0.220422
0.2204236
0.2204258
0.2204286
0.2204323
0.220437
0.220443
0.2204507
0.2204605
0.2204728
0.2204884
0.2205078
0.2205318
0.2205614
0.2205972
0.2204169
0.2204169
0.2204169
0.2204169
0.220417
0.220417
0.2204171
0.2204172
0.2204174
0.2204176
0.220418
0.2204184
0.2204189
0.2204197
0.2204206
0.2204219
0.2204236
0.2204257
0.2204285
0.2204321
0.2204368
0.2204428
0.2204504
0.2204601
0.2204723
0.2204878
0.220507
0.2205309
0.2205603
0.220596
0.2204171
0.2204171
0.2204171
0.2204171
0.2204172
0.2204173
0.2204174
0.2204176
0.2204179
0.2204183
0.2204188
0.2204194
0.2204203
0.2204214
0.2204229
0.2204248
0.2204273
0.2204305
0.2204347
0.2204401
0.2204469
0.2204557
0.2204668
0.2204809
0.2204986
0.2205208
0.2205484
0.2205827
0.220625
0.2206767
0.2204171
0.2204171
0.2204171
0.2204172
0.2204172
0.2204173
0.2204175
0.2204177
0.2204179
0.2204183
0.2204188
0.2204195
0.2204204
0.2204215
0.220423
0.220425
0.2204276
0.2204309
0.2204352
0.2204407
0.2204477
0.2204567
0.2204681
0.2204825
0.2205006
0.2205233
0.2205516
0.2205867
0.22063
0.2206827
0.2204169
0.2204169
0.2204169
0.2204169
0.220417
0.220417
0.2204171
0.2204173
0.2204174
0.2204177
0.220418
0.2204184
0.220419
0.2204197
0.2204207
0.220422
0.2204237
0.2204259
0.2204287
0.2204324
0.2204371
0.2204432
0.2204509
0.2204608
0.2204732
0.2204888
0.2205083
0.2205324
0.2205621
0.220598
0.2204169
0.2204169
0.2204169
0.2204169
0.220417
0.220417
0.2204171
0.2204172
0.2204174
0.2204177
0.220418
0.2204184
0.2204189
0.2204197
0.2204207
0.2204219
0.2204236
0.2204257
0.2204285
0.2204321
0.2204367
0.2204426
0.2204502
0.2204598
0.2204719
0.2204871
0.2205062
0.2205299
0.220559
0.2205944
0.2204171
0.2204171
0.2204171
0.2204172
0.2204172
0.2204173
0.2204175
0.2204177
0.220418
0.2204184
0.2204189
0.2204196
0.2204205
0.2204217
0.2204232
0.2204253
0.2204279
0.2204314
0.2204358
0.2204415
0.2204489
0.2204582
0.2204702
0.2204852
0.2205043
0.2205282
0.220558
0.2205952
0.2206412
0.2206973
0.2204198
0.2204198
0.2204199
0.22042
0.2204202
0.2204206
0.2204211
0.2204218
0.2204227
0.2204239
0.2204256
0.2204276
0.2204303
0.2204337
0.2204379
0.2204433
0.22045
0.2204583
0.2204687
0.2204815
0.2204971
0.2205162
0.2205392
0.220567
0.2206003
0.2206399
0.2206867
0.2207417
0.2208058
0.22088
0.2204187
0.2204187
0.2204187
0.2204188
0.2204189
0.2204191
0.2204194
0.2204197
0.2204203
0.220421
0.2204219
0.2204232
0.2204247
0.2204268
0.2204293
0.2204326
0.2204367
0.2204418
0.2204482
0.2204561
0.220466
0.220478
0.2204928
0.2205106
0.2205322
0.2205579
0.2205884
0.2206243
0.2206658
0.2207133
0.2204187
0.2204187
0.2204187
0.2204188
0.2204189
0.2204191
0.2204193
0.2204197
0.2204203
0.220421
0.2204219
0.2204231
0.2204247
0.2204268
0.2204294
0.2204326
0.2204368
0.2204419
0.2204484
0.2204565
0.2204664
0.2204786
0.2204935
0.2205116
0.2205334
0.2205594
0.2205901
0.2206261
0.2206677
0.2207151
0.2204196
0.2204197
0.2204197
0.2204198
0.2204201
0.2204204
0.2204209
0.2204215
0.2204224
0.2204236
0.2204251
0.2204271
0.2204296
0.2204328
0.2204369
0.2204419
0.2204483
0.2204562
0.2204659
0.2204779
0.2204926
0.2205105
0.2205321
0.2205581
0.2205891
0.2206258
0.2206691
0.2207196
0.2207782
0.2208456
0.2204195
0.2204196
0.2204196
0.2204197
0.2204199
0.2204203
0.2204207
0.2204214
0.2204222
0.2204234
0.2204249
0.2204268
0.2204293
0.2204324
0.2204363
0.2204412
0.2204474
0.2204551
0.2204646
0.2204763
0.2204906
0.220508
0.220529
0.2205543
0.2205844
0.2206202
0.2206624
0.2207118
0.220769
0.2208349
0.2204186
0.2204186
0.2204186
0.2204187
0.2204188
0.220419
0.2204192
0.2204196
0.2204201
0.2204208
0.2204218
0.220423
0.2204245
0.2204265
0.220429
0.2204322
0.2204362
0.2204412
0.2204475
0.2204554
0.2204651
0.220477
0.2204916
0.2205092
0.2205305
0.220556
0.2205861
0.2206214
0.2206624
0.2207092
0.2204186
0.2204186
0.2204187
0.2204187
0.2204188
0.220419
0.2204193
0.2204196
0.2204202
0.2204209
0.2204218
0.220423
0.2204246
0.2204266
0.2204291
0.2204323
0.2204364
0.2204415
0.2204478
0.2204558
0.2204655
0.2204776
0.2204922
0.2205101
0.2205315
0.2205572
0.2205875
0.2206231
0.2206642
0.2207113
0.2204196
0.2204196
0.2204196
0.2204198
0.22042
0.2204203
0.2204208
0.2204214
0.2204223
0.2204235
0.220425
0.2204269
0.2204294
0.2204326
0.2204365
0.2204415
0.2204478
0.2204556
0.2204652
0.220477
0.2204915
0.2205091
0.2205304
0.2205559
0.2205865
0.2206227
0.2206654
0.2207153
0.2207732
0.2208397
0.2204196
0.2204196
0.2204196
0.2204198
0.22042
0.2204203
0.2204208
0.2204214
0.2204223
0.2204234
0.220425
0.2204269
0.2204294
0.2204325
0.2204365
0.2204414
0.2204477
0.2204554
0.220465
0.2204767
0.2204912
0.2205087
0.2205299
0.2205553
0.2205857
0.2206217
0.2206642
0.2207139
0.2207715
0.2208377
0.2204186
0.2204186
0.2204186
0.2204187
0.2204188
0.220419
0.2204193
0.2204196
0.2204202
0.2204209
0.2204218
0.220423
0.2204246
0.2204265
0.2204291
0.2204323
0.2204363
0.2204414
0.2204478
0.2204557
0.2204654
0.2204774
0.2204921
0.2205098
0.2205313
0.2205568
0.2205871
0.2206226
0.2206636
0.2207106
0.2204186
0.2204186
0.2204187
0.2204187
0.2204188
0.220419
0.2204193
0.2204196
0.2204202
0.2204209
0.2204218
0.220423
0.2204246
0.2204266
0.2204291
0.2204323
0.2204364
0.2204415
0.2204478
0.2204557
0.2204655
0.2204775
0.2204922
0.22051
0.2205315
0.2205571
0.2205874
0.220623
0.2206641
0.2207111
0.2204196
0.2204196
0.2204196
0.2204198
0.22042
0.2204203
0.2204208
0.2204214
0.2204223
0.2204235
0.220425
0.2204269
0.2204294
0.2204325
0.2204365
0.2204415
0.2204477
0.2204555
0.2204651
0.2204769
0.2204914
0.2205089
0.2205302
0.2205557
0.2205862
0.2206223
0.2206649
0.2207147
0.2207724
0.2208388
0.2204196
0.2204196
0.2204196
0.2204198
0.22042
0.2204203
0.2204208
0.2204214
0.2204223
0.2204235
0.220425
0.2204269
0.2204294
0.2204325
0.2204365
0.2204415
0.2204477
0.2204555
0.2204651
0.2204769
0.2204913
0.2205089
0.2205301
0.2205556
0.220586
0.2206222
0.2206647
0.2207145
0.2207722
0.2208385
0.2204186
0.2204186
0.2204187
0.2204187
0.2204188
0.220419
0.2204193
0.2204196
0.2204202
0.2204209
0.2204218
0.220423
0.2204246
0.2204266
0.2204291
0.2204323
0.2204364
0.2204415
0.2204478
0.2204557
0.2204655
0.2204775
0.2204922
0.22051
0.2205314
0.220557
0.2205874
0.2206229
0.220664
0.2207109
0.2204186
0.2204186
0.2204187
0.2204187
0.2204188
0.220419
0.2204193
0.2204196
0.2204202
0.2204209
0.2204218
0.220423
0.2204246
0.2204266
0.2204291
0.2204323
0.2204364
0.2204415
0.2204478
0.2204557
0.2204655
0.2204775
0.2204922
0.22051
0.2205314
0.220557
0.2205874
0.2206229
0.220664
0.2207109
0.2204196
0.2204196
0.2204196
0.2204198
0.22042
0.2204203
0.2204208
0.2204214
0.2204223
0.2204235
0.220425
0.2204269
0.2204294
0.2204325
0.2204365
0.2204415
0.2204477
0.2204555
0.2204651
0.2204769
0.2204913
0.2205089
0.2205301
0.2205556
0.220586
0.2206222
0.2206647
0.2207145
0.2207722
0.2208385
0.2204196
0.2204196
0.2204196
0.2204198
0.22042
0.2204203
0.2204208
0.2204214
0.2204223
0.2204235
0.220425
0.2204269
0.2204294
0.2204325
0.2204365
0.2204415
0.2204477
0.2204555
0.2204651
0.2204769
0.2204914
0.2205089
0.2205302
0.2205557
0.2205862
0.2206223
0.2206649
0.2207147
0.2207724
0.2208388
0.2204186
0.2204186
0.2204187
0.2204187
0.2204188
0.220419
0.2204193
0.2204196
0.2204202
0.2204209
0.2204218
0.220423
0.2204246
0.2204266
0.2204291
0.2204323
0.2204364
0.2204415
0.2204478
0.2204557
0.2204655
0.2204775
0.2204922
0.22051
0.2205315
0.2205571
0.2205874
0.2206229
0.2206641
0.220711
0.2204186
0.2204186
0.2204186
0.2204187
0.2204188
0.220419
0.2204193
0.2204196
0.2204202
0.2204209
0.2204218
0.220423
0.2204246
0.2204265
0.2204291
0.2204323
0.2204363
0.2204414
0.2204478
0.2204557
0.2204654
0.2204774
0.2204921
0.2205099
0.2205313
0.2205568
0.2205871
0.2206226
0.2206637
0.2207106
0.2204196
0.2204196
0.2204196
0.2204198
0.22042
0.2204203
0.2204208
0.2204214
0.2204223
0.2204235
0.220425
0.2204269
0.2204294
0.2204325
0.2204365
0.2204414
0.2204477
0.2204554
0.220465
0.2204768
0.2204912
0.2205087
0.2205299
0.2205553
0.2205857
0.2206218
0.2206643
0.2207139
0.2207715
0.2208378
0.2204196
0.2204196
0.2204196
0.2204198
0.22042
0.2204203
0.2204208
0.2204214
0.2204223
0.2204235
0.220425
0.2204269
0.2204294
0.2204326
0.2204366
0.2204416
0.2204478
0.2204556
0.2204652
0.220477
0.2204915
0.2205092
0.2205305
0.220556
0.2205866
0.2206228
0.2206655
0.2207155
0.2207734
0.2208399
0.2204186
0.2204186
0.2204187
0.2204187
0.2204188
0.220419
0.2204193
0.2204196
0.2204202
0.2204209
0.2204218
0.220423
0.2204246
0.2204266
0.2204291
0.2204323
0.2204364
0.2204415
0.2204479
0.2204558
0.2204656
0.2204776
0.2204923
0.2205101
0.2205316
0.2205572
0.2205876
0.2206232
0.2206644
0.2207114
0.2204186
0.2204186
0.2204186
0.2204187
0.2204188
0.220419
0.2204192
0.2204196
0.2204201
0.2204208
0.2204218
0.220423
0.2204245
0.2204265
0.220429
0.2204322
0.2204362
0.2204412
0.2204475
0.2204554
0.2204651
0.220477
0.2204915
0.2205092
0.2205305
0.220556
0.2205861
0.2206214
0.2206624
0.2207091
0.2204195
0.2204196
0.2204196
0.2204197
0.2204199
0.2204203
0.2204207
0.2204214
0.2204222
0.2204234
0.2204249
0.2204268
0.2204293
0.2204324
0.2204363
0.2204412
0.2204474
0.2204551
0.2204646
0.2204762
0.2204906
0.2205079
0.220529
0.2205542
0.2205844
0.2206202
0.2206623
0.2207117
0.2207689
0.2208347
0.2204196
0.2204197
0.2204197
0.2204198
0.22042
0.2204204
0.2204209
0.2204215
0.2204224
0.2204236
0.2204251
0.2204271
0.2204296
0.2204328
0.2204368
0.2204419
0.2204483
0.2204561
0.2204659
0.2204779
0.2204926
0.2205105
0.2205321
0.220558
0.220589
0.2206257
0.2206689
0.2207195
0.2207781
0.2208453
0.2204187
0.2204187
0.2204187
0.2204188
0.2204189
0.220419
0.2204193
0.2204197
0.2204202
0.220421
0.2204219
0.2204231
0.2204247
0.2204268
0.2204293
0.2204326
0.2204367
0.2204419
0.2204484
0.2204564
0.2204664
0.2204786
0.2204935
0.2205115
0.2205333
0.2205592
0.2205899
0.2206258
0.2206674
0.2207148
0.2204187
0.2204187
0.2204187
0.2204188
0.2204189
0.2204191
0.2204193
0.2204197
0.2204203
0.220421
0.2204219
0.2204231
0.2204247
0.2204267
0.2204293
0.2204325
0.2204366
0.2204417
0.2204481
0.220456
0.2204658
0.2204779
0.2204926
0.2205104
0.2205319
0.2205577
0.2205881
0.2206239
0.2206653
0.2207128
0.2204198
0.2204198
0.2204199
0.22042
0.2204202
0.2204206
0.2204211
0.2204218
0.2204227
0.2204239
0.2204255
0.2204276
0.2204303
0.2204336
0.2204379
0.2204432
0.2204499
0.2204582
0.2204686
0.2204813
0.2204969
0.2205159
0.2205389
0.2205667
0.2205999
0.2206394
0.2206861
0.220741
0.220805
0.2208791
0.2204265
0.2204265
0.2204267
0.220427
0.2204276
0.2204285
0.2204297
0.2204313
0.2204335
0.2204363
0.2204398
0.2204443
0.2204498
0.2204566
0.2204649
0.220475
0.2204873
0.2205021
0.2205198
0.2205409
0.2205659
0.2205954
0.2206299
0.2206703
0.220717
0.220771
0.2208328
0.2209034
0.2209833
0.2210733
0.2204232
0.2204232
0.2204232
0.2204233
0.2204236
0.220424
0.2204246
0.2204255
0.2204266
0.2204282
0.2204302
0.2204328
0.220436
0.22044
0.220445
0.2204512
0.2204587
0.2204679
0.2204791
0.2204925
0.2205086
0.2205277
0.2205503
0.2205768
0.2206077
0.2206434
0.2206842
0.2207304
0.2207822
0.2208393
0.220423
0.220423
0.2204231
0.2204232
0.2204234
0.2204238
0.2204244
0.2204253
0.2204265
0.220428
0.22043
0.2204325
0.2204357
0.2204398
0.2204447
0.2204508
0.2204584
0.2204675
0.2204786
0.220492
0.220508
0.220527
0.2205494
0.2205757
0.2206063
0.2206416
0.2206819
0.2207274
0.2207783
0.2208344
0.2204259
0.220426
0.2204261
0.2204264
0.220427
0.2204278
0.2204289
0.2204304
0.2204325
0.220435
0.2204383
0.2204425
0.2204476
0.2204539
0.2204616
0.220471
0.2204823
0.220496
0.2205123
0.2205317
0.2205546
0.2205816
0.220613
0.2206496
0.2206919
0.2207403
0.2207956
0.2208582
0.2209286
0.2210071
0.2204256
0.2204256
0.2204258
0.2204261
0.2204266
0.2204274
0.2204285
0.22043
0.2204319
0.2204345
0.2204377
0.2204417
0.2204466
0.2204527
0.2204602
0.2204694
0.2204804
0.2204936
0.2205094
0.2205283
0.2205505
0.2205767
0.2206073
0.2206428
0.2206838
0.2207309
0.2207847
0.2208456
0.2209142
0.2209909
0.2204228
0.2204228
0.2204228
0.2204229
0.2204231
0.2204235
0.2204241
0.220425
0.2204261
0.2204276
0.2204295
0.220432
0.2204351
0.2204389
0.2204438
0.2204497
0.2204569
0.2204658
0.2204766
0.2204895
0.2205051
0.2205235
0.2205454
0.220571
0.2206008
0.2206352
0.2206746
0.2207192
0.2207691
0.2208243
0.2204228
0.2204228
0.2204228
0.220423
0.2204232
0.2204236
0.2204242
0.220425
0.2204262
0.2204277
0.2204296
0.2204321
0.2204352
0.2204392
0.220444
0.22045
0.2204573
0.2204663
0.2204771
0.2204902
0.2205059
0.2205246
0.2205466
0.2205724
0.2206025
0.2206372
0.2206768
0.2207217
0.2207719
0.2208273
0.2204257
0.2204257
0.2204259
0.2204262
0.2204267
0.2204275
0.2204286
0.2204301
0.2204321
0.2204347
0.2204379
0.2204419
0.220447
0.2204532
0.2204608
0.22047
0.2204812
0.2204946
0.2205106
0.2205297
0.2205522
0.2205787
0.2206097
0.2206457
0.2206873
0.2207351
0.2207895
0.2208513
0.2209208
0.2209984
0.2204257
0.2204257
0.2204259
0.2204262
0.2204267
0.2204275
0.2204286
0.2204301
0.2204321
0.2204346
0.2204378
0.2204418
0.2204469
0.220453
0.2204606
0.2204698
0.2204809
0.2204942
0.2205102
0.2205292
0.2205516
0.220578
0.2206088
0.2206446
0.220686
0.2207336
0.2207878
0.2208492
0.2209184
0.2209956
0.2204228
0.2204228
0.2204228
0.2204229
0.2204232
0.2204236
0.2204242
0.220425
0.2204262
0.2204277
0.2204296
0.2204321
0.2204352
0.2204391
0.220444
0.2204499
0.2204573
0.2204662
0.220477
0.2204901
0.2205057
0.2205243
0.2205463
0.2205721
0.2206021
0.2206367
0.2206763
0.220721
0.2207712
0.2208265
0.2204228
0.2204228
0.2204228
0.220423
0.2204232
0.2204236
0.2204242
0.220425
0.2204262
0.2204277
0.2204296
0.2204321
0.2204352
0.2204392
0.220444
0.22045
0.2204573
0.2204663
0.2204771
0.2204902
0.2205059
0.2205245
0.2205466
0.2205724
0.2206024
0.2206371
0.2206767
0.2207216
0.2207717
0.2208272
0.2204257
0.2204257
0.2204259
0.2204262
0.2204267
0.2204275
0.2204286
0.2204301
0.2204321
0.2204346
0.2204379
0.2204419
0.2204469
0.2204531
0.2204607
0.2204699
0.220481
0.2204944
0.2205104
0.2205295
0.220552
0.2205784
0.2206094
0.2206453
0.2206868
0.2207345
0.2207888
0.2208505
0.2209198
0.2209973
0.2204257
0.2204257
0.2204259
0.2204262
0.2204267
0.2204275
0.2204286
0.2204301
0.2204321
0.2204346
0.2204378
0.2204419
0.2204469
0.2204531
0.2204607
0.2204699
0.220481
0.2204944
0.2205104
0.2205294
0.2205519
0.2205783
0.2206092
0.2206451
0.2206865
0.2207341
0.2207885
0.22085
0.2209193
0.2209967
0.2204228
0.2204228
0.2204228
0.220423
0.2204232
0.2204236
0.2204242
0.220425
0.2204262
0.2204277
0.2204296
0.2204321
0.2204352
0.2204391
0.220444
0.22045
0.2204573
0.2204662
0.2204771
0.2204902
0.2205058
0.2205244
0.2205464
0.2205722
0.2206023
0.2206369
0.2206765
0.2207214
0.2207715
0.220827
0.2204228
0.2204228
0.2204228
0.220423
0.2204232