/*--------------------------------*- C++ -*----------------------------------*\
| =========                 |                                                 |
| \\      /  F ield         | OpenFOAM: The Open Source CFD Toolbox           |
|  \\    /   O peration     | Version:  4.0                                   |
|   \\  /    A nd           | Web:      www.OpenFOAM.org                      |
|    \\/     M anipulation  |                                                 |
\*---------------------------------------------------------------------------*/
FoamFile
{
    version     2.0;
    format      ascii;
    class       volScalarField;
    location    "60/air";
    object      XO2air;
}
// * * * * * * * * * * * * * * * * * * * * * * * * * * * * * * * * * * * * * //

dimensions      [0 0 0 0 0 0 0];

internalField   nonuniform List<scalar> 
39776
(
0.1654593
0.1654593
0.1654593
0.1654593
0.1654592
0.1654592
0.1654592
0.1654592
0.1654592
0.1654592
0.1654592
0.1654592
0.1654592
0.1654591
0.1654591
0.165459
0.1654589
0.1654587
0.1654585
0.1654581
0.1654576
0.1654569
0.1654558
0.1654543
0.1654519
0.1654484
0.1654431
0.1654351
0.165423
0.1654045
0.1654593
0.1654593
0.1654593
0.1654593
0.1654593
0.1654593
0.1654592
0.1654592
0.1654592
0.1654592
0.1654592
0.1654592
0.1654592
0.1654592
0.1654591
0.1654591
0.165459
0.1654589
0.1654588
0.1654585
0.1654582
0.1654577
0.1654571
0.1654561
0.1654546
0.1654524
0.1654492
0.1654443
0.1654371
0.1654262
0.1654593
0.1654593
0.1654593
0.1654593
0.1654593
0.1654593
0.1654592
0.1654592
0.1654592
0.1654592
0.1654592
0.1654592
0.1654592
0.1654592
0.1654591
0.1654591
0.165459
0.1654589
0.1654587
0.1654585
0.1654582
0.1654577
0.1654569
0.1654559
0.1654543
0.165452
0.1654486
0.1654435
0.165436
0.1654245
0.1654593
0.1654593
0.1654593
0.1654593
0.1654592
0.1654592
0.1654592
0.1654592
0.1654592
0.1654592
0.1654592
0.1654592
0.1654592
0.1654591
0.1654591
0.165459
0.1654589
0.1654587
0.1654585
0.1654582
0.1654577
0.1654569
0.1654559
0.1654544
0.1654521
0.1654487
0.1654436
0.1654359
0.1654243
0.1654066
0.1654593
0.1654593
0.1654593
0.1654593
0.1654592
0.1654592
0.1654592
0.1654592
0.1654592
0.1654592
0.1654592
0.1654592
0.1654592
0.1654591
0.1654591
0.165459
0.1654589
0.1654587
0.1654585
0.1654582
0.1654577
0.165457
0.165456
0.1654545
0.1654522
0.1654489
0.1654439
0.1654364
0.165425
0.1654077
0.1654593
0.1654593
0.1654593
0.1654593
0.1654593
0.1654593
0.1654592
0.1654592
0.1654592
0.1654592
0.1654592
0.1654592
0.1654592
0.1654592
0.1654591
0.1654591
0.165459
0.1654589
0.1654587
0.1654585
0.1654582
0.1654577
0.1654569
0.1654559
0.1654543
0.165452
0.1654486
0.1654435
0.1654359
0.1654245
0.1654593
0.1654593
0.1654593
0.1654593
0.1654593
0.1654593
0.1654592
0.1654592
0.1654592
0.1654592
0.1654592
0.1654592
0.1654592
0.1654592
0.1654591
0.1654591
0.165459
0.1654589
0.1654587
0.1654585
0.1654581
0.1654576
0.1654569
0.1654558
0.1654543
0.165452
0.1654485
0.1654434
0.1654358
0.1654243
0.1654593
0.1654593
0.1654593
0.1654593
0.1654592
0.1654592
0.1654592
0.1654592
0.1654592
0.1654592
0.1654592
0.1654592
0.1654592
0.1654591
0.1654591
0.165459
0.1654589
0.1654587
0.1654585
0.1654582
0.1654577
0.165457
0.1654559
0.1654544
0.1654521
0.1654487
0.1654437
0.1654361
0.1654246
0.1654071
0.1654593
0.1654593
0.1654593
0.1654593
0.1654592
0.1654592
0.1654592
0.1654592
0.1654592
0.1654592
0.1654592
0.1654592
0.1654592
0.1654591
0.1654591
0.165459
0.1654589
0.1654587
0.1654585
0.1654582
0.1654577
0.165457
0.1654559
0.1654544
0.1654522
0.1654488
0.1654438
0.1654362
0.1654248
0.1654074
0.1654593
0.1654593
0.1654593
0.1654593
0.1654593
0.1654593
0.1654592
0.1654592
0.1654592
0.1654592
0.1654592
0.1654592
0.1654592
0.1654592
0.1654591
0.1654591
0.165459
0.1654589
0.1654587
0.1654585
0.1654581
0.1654577
0.1654569
0.1654559
0.1654543
0.165452
0.1654486
0.1654435
0.1654358
0.1654244
0.1654593
0.1654593
0.1654593
0.1654593
0.1654593
0.1654593
0.1654592
0.1654592
0.1654592
0.1654592
0.1654592
0.1654592
0.1654592
0.1654592
0.1654591
0.1654591
0.165459
0.1654589
0.1654587
0.1654585
0.1654581
0.1654576
0.1654569
0.1654559
0.1654543
0.165452
0.1654485
0.1654434
0.1654358
0.1654243
0.1654593
0.1654593
0.1654593
0.1654593
0.1654592
0.1654592
0.1654592
0.1654592
0.1654592
0.1654592
0.1654592
0.1654592
0.1654592
0.1654591
0.1654591
0.165459
0.1654589
0.1654587
0.1654585
0.1654582
0.1654577
0.165457
0.1654559
0.1654544
0.1654521
0.1654488
0.1654437
0.1654362
0.1654247
0.1654073
0.1654593
0.1654593
0.1654593
0.1654593
0.1654592
0.1654592
0.1654592
0.1654592
0.1654592
0.1654592
0.1654592
0.1654592
0.1654592
0.1654591
0.1654591
0.165459
0.1654589
0.1654587
0.1654585
0.1654582
0.1654577
0.165457
0.1654559
0.1654544
0.1654521
0.1654488
0.1654437
0.1654362
0.1654247
0.1654073
0.1654593
0.1654593
0.1654593
0.1654593
0.1654593
0.1654593
0.1654592
0.1654592
0.1654592
0.1654592
0.1654592
0.1654592
0.1654592
0.1654592
0.1654591
0.1654591
0.165459
0.1654589
0.1654587
0.1654585
0.1654581
0.1654576
0.1654569
0.1654558
0.1654543
0.165452
0.1654485
0.1654434
0.1654358
0.1654243
0.1654593
0.1654593
0.1654593
0.1654593
0.1654593
0.1654593
0.1654592
0.1654592
0.1654592
0.1654592
0.1654592
0.1654592
0.1654592
0.1654592
0.1654591
0.1654591
0.165459
0.1654589
0.1654587
0.1654585
0.1654581
0.1654576
0.1654569
0.1654558
0.1654543
0.165452
0.1654485
0.1654434
0.1654358
0.1654243
0.1654593
0.1654593
0.1654593
0.1654593
0.1654592
0.1654592
0.1654592
0.1654592
0.1654592
0.1654592
0.1654592
0.1654592
0.1654592
0.1654591
0.1654591
0.165459
0.1654589
0.1654587
0.1654585
0.1654582
0.1654577
0.165457
0.1654559
0.1654544
0.1654521
0.1654488
0.1654437
0.1654362
0.1654247
0.1654073
0.1654593
0.1654593
0.1654593
0.1654593
0.1654592
0.1654592
0.1654592
0.1654592
0.1654592
0.1654592
0.1654592
0.1654592
0.1654592
0.1654591
0.1654591
0.165459
0.1654589
0.1654587
0.1654585
0.1654582
0.1654577
0.165457
0.1654559
0.1654544
0.1654521
0.1654488
0.1654437
0.1654362
0.1654247
0.1654072
0.1654593
0.1654593
0.1654593
0.1654593
0.1654593
0.1654593
0.1654592
0.1654592
0.1654592
0.1654592
0.1654592
0.1654592
0.1654592
0.1654592
0.1654591
0.1654591
0.165459
0.1654589
0.1654587
0.1654585
0.1654581
0.1654576
0.1654569
0.1654559
0.1654543
0.165452
0.1654485
0.1654434
0.1654358
0.1654243
0.1654593
0.1654593
0.1654593
0.1654593
0.1654593
0.1654593
0.1654592
0.1654592
0.1654592
0.1654592
0.1654592
0.1654592
0.1654592
0.1654592
0.1654591
0.1654591
0.165459
0.1654589
0.1654587
0.1654585
0.1654581
0.1654577
0.1654569
0.1654559
0.1654543
0.165452
0.1654485
0.1654434
0.1654358
0.1654244
0.1654593
0.1654593
0.1654593
0.1654593
0.1654592
0.1654592
0.1654592
0.1654592
0.1654592
0.1654592
0.1654592
0.1654592
0.1654592
0.1654591
0.1654591
0.165459
0.1654589
0.1654587
0.1654585
0.1654582
0.1654577
0.165457
0.1654559
0.1654544
0.1654522
0.1654488
0.1654438
0.1654362
0.1654248
0.1654073
0.1654593
0.1654593
0.1654593
0.1654593
0.1654592
0.1654592
0.1654592
0.1654592
0.1654592
0.1654592
0.1654592
0.1654592
0.1654592
0.1654591
0.1654591
0.165459
0.1654589
0.1654587
0.1654585
0.1654582
0.1654577
0.165457
0.1654559
0.1654544
0.1654521
0.1654487
0.1654437
0.165436
0.1654245
0.165407
0.1654593
0.1654593
0.1654593
0.1654593
0.1654593
0.1654593
0.1654592
0.1654592
0.1654592
0.1654592
0.1654592
0.1654592
0.1654592
0.1654592
0.1654591
0.1654591
0.165459
0.1654589
0.1654587
0.1654585
0.1654581
0.1654576
0.1654569
0.1654558
0.1654543
0.1654519
0.1654485
0.1654434
0.1654357
0.1654242
0.1654593
0.1654593
0.1654593
0.1654593
0.1654593
0.1654593
0.1654592
0.1654592
0.1654592
0.1654592
0.1654592
0.1654592
0.1654592
0.1654592
0.1654591
0.1654591
0.165459
0.1654589
0.1654587
0.1654585
0.1654582
0.1654577
0.1654569
0.1654559
0.1654543
0.165452
0.1654486
0.1654435
0.1654359
0.1654245
0.1654593
0.1654593
0.1654593
0.1654593
0.1654592
0.1654592
0.1654592
0.1654592
0.1654592
0.1654592
0.1654592
0.1654592
0.1654592
0.1654591
0.1654591
0.165459
0.1654589
0.1654587
0.1654585
0.1654582
0.1654577
0.165457
0.165456
0.1654545
0.1654522
0.1654489
0.1654439
0.1654364
0.1654251
0.1654077
0.1654593
0.1654593
0.1654593
0.1654593
0.1654592
0.1654592
0.1654592
0.1654592
0.1654592
0.1654592
0.1654592
0.1654592
0.1654592
0.1654591
0.1654591
0.165459
0.1654589
0.1654587
0.1654585
0.1654582
0.1654577
0.165457
0.1654559
0.1654544
0.1654521
0.1654487
0.1654436
0.1654359
0.1654243
0.1654066
0.1654593
0.1654593
0.1654593
0.1654593
0.1654593
0.1654593
0.1654592
0.1654592
0.1654592
0.1654592
0.1654592
0.1654592
0.1654592
0.1654592
0.1654591
0.1654591
0.165459
0.1654589
0.1654587
0.1654585
0.1654582
0.1654577
0.165457
0.1654559
0.1654543
0.1654521
0.1654487
0.1654436
0.165436
0.1654246
0.1654593
0.1654593
0.1654593
0.1654593
0.1654593
0.1654593
0.1654592
0.1654592
0.1654592
0.1654592
0.1654592
0.1654592
0.1654592
0.1654592
0.1654591
0.1654591
0.165459
0.1654589
0.1654588
0.1654585
0.1654582
0.1654577
0.1654571
0.1654561
0.1654546
0.1654524
0.1654492
0.1654444
0.1654372
0.1654263
0.1654593
0.1654593
0.1654593
0.1654593
0.1654592
0.1654592
0.1654592
0.1654592
0.1654592
0.1654592
0.1654592
0.1654592
0.1654592
0.1654591
0.1654591
0.165459
0.1654589
0.1654587
0.1654585
0.1654581
0.1654576
0.1654569
0.1654559
0.1654543
0.1654519
0.1654484
0.1654432
0.1654352
0.1654232
0.1654047
0.165459
0.165459
0.165459
0.165459
0.165459
0.1654589
0.1654589
0.1654588
0.1654587
0.1654585
0.1654583
0.1654579
0.1654575
0.165457
0.1654562
0.1654552
0.1654539
0.1654521
0.1654497
0.1654467
0.1654426
0.1654374
0.1654306
0.1654218
0.1654104
0.1653959
0.1653773
0.1653537
0.1653239
0.1652867
0.1654591
0.1654591
0.1654591
0.1654591
0.1654591
0.165459
0.165459
0.165459
0.1654589
0.1654588
0.1654587
0.1654585
0.1654582
0.1654579
0.1654574
0.1654568
0.165456
0.165455
0.1654535
0.1654517
0.1654492
0.1654459
0.1654417
0.1654362
0.165429
0.1654198
0.165408
0.165393
0.1653741
0.1653505
0.1654591
0.1654591
0.1654591
0.1654591
0.1654591
0.165459
0.165459
0.165459
0.1654589
0.1654588
0.1654586
0.1654585
0.1654582
0.1654579
0.1654574
0.1654568
0.1654559
0.1654548
0.1654533
0.1654514
0.1654488
0.1654454
0.165441
0.1654353
0.1654278
0.1654183
0.1654061
0.1653906
0.1653711
0.1653469
0.165459
0.165459
0.165459
0.165459
0.165459
0.1654589
0.1654589
0.1654588
0.1654587
0.1654585
0.1654583
0.165458
0.1654575
0.165457
0.1654562
0.1654552
0.1654539
0.1654522
0.1654499
0.1654468
0.1654429
0.1654377
0.165431
0.1654224
0.1654113
0.1653972
0.1653792
0.1653563
0.1653276
0.1652918
0.165459
0.165459
0.165459
0.165459
0.165459
0.1654589
0.1654589
0.1654588
0.1654587
0.1654585
0.1654583
0.165458
0.1654576
0.165457
0.1654563
0.1654553
0.1654541
0.1654524
0.1654501
0.1654472
0.1654433
0.1654383
0.1654318
0.1654234
0.1654126
0.1653989
0.1653813
0.165359
0.165331
0.1652961
0.1654591
0.1654591
0.1654591
0.1654591
0.1654591
0.1654591
0.165459
0.165459
0.1654589
0.1654588
0.1654587
0.1654585
0.1654582
0.1654579
0.1654574
0.1654568
0.165456
0.1654549
0.1654534
0.1654515
0.165449
0.1654457
0.1654413
0.1654357
0.1654283
0.1654189
0.1654068
0.1653915
0.1653722
0.1653483
0.1654591
0.1654591
0.1654591
0.1654591
0.1654591
0.165459
0.165459
0.165459
0.1654589
0.1654588
0.1654587
0.1654585
0.1654582
0.1654579
0.1654574
0.1654568
0.165456
0.1654549
0.1654534
0.1654514
0.1654489
0.1654455
0.1654411
0.1654354
0.1654281
0.1654186
0.1654064
0.165391
0.1653716
0.1653475
0.165459
0.165459
0.165459
0.165459
0.165459
0.1654589
0.1654589
0.1654588
0.1654587
0.1654585
0.1654583
0.165458
0.1654576
0.165457
0.1654563
0.1654553
0.165454
0.1654523
0.16545
0.165447
0.1654431
0.165438
0.1654314
0.1654229
0.165412
0.165398
0.1653802
0.1653577
0.1653294
0.165294
0.165459
0.165459
0.165459
0.165459
0.165459
0.1654589
0.1654589
0.1654588
0.1654587
0.1654585
0.1654583
0.165458
0.1654576
0.165457
0.1654563
0.1654553
0.165454
0.1654523
0.16545
0.1654471
0.1654432
0.1654381
0.1654316
0.1654231
0.1654122
0.1653983
0.1653807
0.1653582
0.16533
0.1652949
0.1654591
0.1654591
0.1654591
0.1654591
0.1654591
0.165459
0.165459
0.165459
0.1654589
0.1654588
0.1654587
0.1654585
0.1654582
0.1654579
0.1654574
0.1654568
0.165456
0.1654549
0.1654534
0.1654515
0.1654489
0.1654456
0.1654412
0.1654355
0.1654281
0.1654187
0.1654065
0.1653911
0.1653718
0.1653477
0.1654591
0.1654591
0.1654591
0.1654591
0.1654591
0.165459
0.165459
0.165459
0.1654589
0.1654588
0.1654587
0.1654585
0.1654582
0.1654579
0.1654574
0.1654568
0.165456
0.1654549
0.1654534
0.1654514
0.1654489
0.1654455
0.1654412
0.1654355
0.1654281
0.1654186
0.1654064
0.165391
0.1653716
0.1653475
0.165459
0.165459
0.165459
0.165459
0.165459
0.1654589
0.1654589
0.1654588
0.1654587
0.1654585
0.1654583
0.165458
0.1654576
0.165457
0.1654563
0.1654553
0.165454
0.1654523
0.16545
0.165447
0.1654431
0.1654381
0.1654315
0.165423
0.1654121
0.1653982
0.1653804
0.1653579
0.1653296
0.1652944
0.165459
0.165459
0.165459
0.165459
0.165459
0.1654589
0.1654589
0.1654588
0.1654587
0.1654585
0.1654583
0.165458
0.1654576
0.165457
0.1654563
0.1654553
0.165454
0.1654523
0.16545
0.165447
0.1654431
0.1654381
0.1654315
0.165423
0.1654121
0.1653982
0.1653805
0.165358
0.1653297
0.1652945
0.1654591
0.1654591
0.1654591
0.1654591
0.1654591
0.165459
0.165459
0.165459
0.1654589
0.1654588
0.1654587
0.1654585
0.1654582
0.1654579
0.1654574
0.1654568
0.165456
0.1654549
0.1654534
0.1654514
0.1654489
0.1654455
0.1654412
0.1654355
0.1654281
0.1654186
0.1654064
0.165391
0.1653716
0.1653475
0.1654591
0.1654591
0.1654591
0.1654591
0.1654591
0.165459
0.165459
0.165459
0.1654589
0.1654588
0.1654587
0.1654585
0.1654582
0.1654579
0.1654574
0.1654568
0.165456
0.1654549
0.1654534
0.1654514
0.1654489
0.1654455
0.1654412
0.1654355
0.1654281
0.1654186
0.1654064
0.165391
0.1653716
0.1653475
0.165459
0.165459
0.165459
0.165459
0.165459
0.1654589
0.1654589
0.1654588
0.1654587
0.1654585
0.1654583
0.165458
0.1654576
0.165457
0.1654563
0.1654553
0.165454
0.1654523
0.16545
0.165447
0.1654431
0.1654381
0.1654315
0.165423
0.1654121
0.1653982
0.1653805
0.165358
0.1653297
0.1652945
0.165459
0.165459
0.165459
0.165459
0.165459
0.1654589
0.1654589
0.1654588
0.1654587
0.1654585
0.1654583
0.165458
0.1654576
0.165457
0.1654563
0.1654553
0.165454
0.1654523
0.16545
0.165447
0.1654431
0.1654381
0.1654315
0.165423
0.1654121
0.1653982
0.1653804
0.1653579
0.1653296
0.1652944
0.1654591
0.1654591
0.1654591
0.1654591
0.1654591
0.165459
0.165459
0.165459
0.1654589
0.1654588
0.1654587
0.1654585
0.1654582
0.1654579
0.1654574
0.1654568
0.165456
0.1654549
0.1654534
0.1654514
0.1654489
0.1654455
0.1654412
0.1654355
0.1654281
0.1654186
0.1654064
0.165391
0.1653716
0.1653475
0.1654591
0.1654591
0.1654591
0.1654591
0.1654591
0.165459
0.165459
0.165459
0.1654589
0.1654588
0.1654587
0.1654585
0.1654582
0.1654579
0.1654574
0.1654568
0.165456
0.1654549
0.1654534
0.1654515
0.1654489
0.1654456
0.1654412
0.1654355
0.1654281
0.1654187
0.1654065
0.1653911
0.1653718
0.1653477
0.165459
0.165459
0.165459
0.165459
0.165459
0.1654589
0.1654589
0.1654588
0.1654587
0.1654585
0.1654583
0.165458
0.1654576
0.165457
0.1654563
0.1654553
0.165454
0.1654523
0.16545
0.1654471
0.1654432
0.1654381
0.1654316
0.1654231
0.1654122
0.1653983
0.1653806
0.1653582
0.16533
0.1652948
0.165459
0.165459
0.165459
0.165459
0.165459
0.1654589
0.1654589
0.1654588
0.1654587
0.1654585
0.1654583
0.165458
0.1654576
0.165457
0.1654563
0.1654553
0.165454
0.1654523
0.16545
0.165447
0.1654431
0.165438
0.1654314
0.1654229
0.165412
0.165398
0.1653802
0.1653576
0.1653292
0.1652939
0.1654591
0.1654591
0.1654591
0.1654591
0.1654591
0.165459
0.165459
0.165459
0.1654589
0.1654588
0.1654587
0.1654585
0.1654582
0.1654579
0.1654574
0.1654568
0.165456
0.1654548
0.1654534
0.1654514
0.1654489
0.1654455
0.1654411
0.1654354
0.165428
0.1654185
0.1654064
0.1653909
0.1653715
0.1653474
0.1654591
0.1654591
0.1654591
0.1654591
0.1654591
0.1654591
0.165459
0.165459
0.1654589
0.1654588
0.1654587
0.1654585
0.1654582
0.1654579
0.1654574
0.1654568
0.165456
0.1654549
0.1654534
0.1654515
0.165449
0.1654457
0.1654413
0.1654357
0.1654283
0.1654189
0.1654069
0.1653915
0.1653723
0.1653483
0.165459
0.165459
0.165459
0.165459
0.165459
0.1654589
0.1654589
0.1654588
0.1654587
0.1654585
0.1654583
0.165458
0.1654576
0.165457
0.1654563
0.1654553
0.1654541
0.1654524
0.1654501
0.1654472
0.1654433
0.1654383
0.1654318
0.1654234
0.1654127
0.1653989
0.1653813
0.1653591
0.1653311
0.1652962
0.165459
0.165459
0.165459
0.165459
0.165459
0.1654589
0.1654589
0.1654588
0.1654587
0.1654585
0.1654583
0.165458
0.1654575
0.165457
0.1654562
0.1654552
0.1654539
0.1654522
0.1654499
0.1654468
0.1654429
0.1654377
0.1654311
0.1654224
0.1654114
0.1653972
0.1653792
0.1653564
0.1653277
0.165292
0.1654591
0.1654591
0.1654591
0.1654591
0.1654591
0.165459
0.165459
0.165459
0.1654589
0.1654588
0.1654586
0.1654585
0.1654582
0.1654579
0.1654574
0.1654568
0.1654559
0.1654548
0.1654533
0.1654514
0.1654488
0.1654454
0.165441
0.1654353
0.1654279
0.1654184
0.1654062
0.1653907
0.1653712
0.1653471
0.1654591
0.1654591
0.1654591
0.1654591
0.1654591
0.165459
0.165459
0.165459
0.1654589
0.1654588
0.1654587
0.1654585
0.1654582
0.1654579
0.1654574
0.1654568
0.165456
0.165455
0.1654536
0.1654517
0.1654492
0.165446
0.1654417
0.1654362
0.1654291
0.1654199
0.1654081
0.1653932
0.1653743
0.1653507
0.165459
0.165459
0.165459
0.165459
0.165459
0.1654589
0.1654589
0.1654588
0.1654587
0.1654585
0.1654583
0.1654579
0.1654575
0.165457
0.1654562
0.1654552
0.1654539
0.1654521
0.1654498
0.1654467
0.1654427
0.1654375
0.1654307
0.1654219
0.1654106
0.165396
0.1653775
0.165354
0.1653243
0.1652872
0.165458
0.165458
0.1654579
0.1654579
0.1654578
0.1654576
0.1654574
0.1654571
0.1654566
0.165456
0.1654553
0.1654542
0.1654529
0.1654512
0.165449
0.1654461
0.1654425
0.1654379
0.1654321
0.1654247
0.1654156
0.1654042
0.1653902
0.1653729
0.165352
0.1653266
0.165296
0.1652596
0.1652164
0.1651656
0.1654584
0.1654584
0.1654584
0.1654584
0.1654583
0.1654583
0.1654581
0.165458
0.1654577
0.1654574
0.165457
0.1654564
0.1654556
0.1654547
0.1654534
0.1654517
0.1654496
0.1654469
0.1654434
0.165439
0.1654334
0.1654264
0.1654176
0.1654068
0.1653934
0.165377
0.1653572
0.1653335
0.1653054
0.1652727
0.1654584
0.1654584
0.1654584
0.1654584
0.1654583
0.1654583
0.1654581
0.165458
0.1654577
0.1654574
0.1654569
0.1654564
0.1654556
0.1654546
0.1654533
0.1654516
0.1654494
0.1654466
0.165443
0.1654385
0.1654327
0.1654255
0.1654165
0.1654054
0.1653917
0.1653749
0.1653547
0.1653306
0.1653022
0.1652691
0.165458
0.165458
0.165458
0.1654579
0.1654578
0.1654577
0.1654574
0.1654571
0.1654567
0.1654561
0.1654554
0.1654544
0.1654531
0.1654514
0.1654493
0.1654465
0.165443
0.1654385
0.1654329
0.1654258
0.165417
0.1654061
0.1653926
0.1653761
0.1653561
0.1653319
0.1653029
0.1652685
0.165228
0.1651808
0.165458
0.165458
0.165458
0.165458
0.1654579
0.1654577
0.1654575
0.1654572
0.1654568
0.1654562
0.1654555
0.1654545
0.1654533
0.1654516
0.1654496
0.1654469
0.1654435
0.1654391
0.1654337
0.1654268
0.1654183
0.1654077
0.1653946
0.1653786
0.1653592
0.1653357
0.1653075
0.1652741
0.1652346
0.1651885
0.1654584
0.1654584
0.1654584
0.1654584
0.1654584
0.1654583
0.1654582
0.165458
0.1654578
0.1654574
0.165457
0.1654564
0.1654557
0.1654547
0.1654535
0.1654518
0.1654497
0.165447
0.1654435
0.1654391
0.1654335
0.1654264
0.1654176
0.1654067
0.1653933
0.1653769
0.1653571
0.1653334
0.1653054
0.1652728
0.1654584
0.1654584
0.1654584
0.1654584
0.1654584
0.1654583
0.1654582
0.165458
0.1654578
0.1654574
0.165457
0.1654564
0.1654557
0.1654547
0.1654534
0.1654517
0.1654496
0.1654468
0.1654433
0.1654388
0.1654332
0.1654261
0.1654172
0.1654062
0.1653926
0.1653761
0.1653561
0.1653323
0.1653041
0.1652713
0.165458
0.165458
0.165458
0.1654579
0.1654578
0.1654577
0.1654575
0.1654572
0.1654567
0.1654562
0.1654554
0.1654545
0.1654532
0.1654515
0.1654494
0.1654467
0.1654433
0.1654389
0.1654333
0.1654264
0.1654177
0.1654069
0.1653937
0.1653775
0.1653577
0.1653339
0.1653054
0.1652715
0.1652315
0.1651849
0.165458
0.165458
0.165458
0.1654579
0.1654579
0.1654577
0.1654575
0.1654572
0.1654568
0.1654562
0.1654554
0.1654545
0.1654532
0.1654516
0.1654495
0.1654468
0.1654433
0.165439
0.1654334
0.1654265
0.1654179
0.1654072
0.165394
0.1653779
0.1653583
0.1653346
0.1653062
0.1652725
0.1652328
0.1651864
0.1654584
0.1654584
0.1654584
0.1654584
0.1654584
0.1654583
0.1654582
0.165458
0.1654578
0.1654574
0.165457
0.1654564
0.1654557
0.1654547
0.1654534
0.1654517
0.1654496
0.1654468
0.1654433
0.1654389
0.1654332
0.1654262
0.1654173
0.1654063
0.1653928
0.1653763
0.1653564
0.1653326
0.1653045
0.1652718
0.1654584
0.1654584
0.1654584
0.1654584
0.1654584
0.1654583
0.1654582
0.165458
0.1654578
0.1654574
0.165457
0.1654564
0.1654557
0.1654547
0.1654534
0.1654517
0.1654496
0.1654468
0.1654433
0.1654388
0.1654332
0.1654261
0.1654172
0.1654062
0.1653927
0.1653762
0.1653562
0.1653323
0.1653042
0.1652714
0.165458
0.165458
0.165458
0.1654579
0.1654578
0.1654577
0.1654575
0.1654572
0.1654567
0.1654562
0.1654554
0.1654545
0.1654532
0.1654515
0.1654494
0.1654467
0.1654433
0.1654389
0.1654334
0.1654264
0.1654178
0.165407
0.1653938
0.1653776
0.1653579
0.1653342
0.1653057
0.1652719
0.1652321
0.1651856
0.165458
0.165458
0.165458
0.1654579
0.1654578
0.1654577
0.1654575
0.1654572
0.1654567
0.1654562
0.1654554
0.1654545
0.1654532
0.1654516
0.1654494
0.1654467
0.1654433
0.1654389
0.1654334
0.1654265
0.1654178
0.1654071
0.1653939
0.1653777
0.165358
0.1653343
0.1653059
0.1652721
0.1652322
0.1651858
0.1654584
0.1654584
0.1654584
0.1654584
0.1654584
0.1654583
0.1654582
0.165458
0.1654578
0.1654574
0.165457
0.1654564
0.1654557
0.1654547
0.1654534
0.1654517
0.1654496
0.1654468
0.1654433
0.1654388
0.1654332
0.1654261
0.1654172
0.1654062
0.1653927
0.1653762
0.1653563
0.1653324
0.1653043
0.1652715
0.1654584
0.1654584
0.1654584
0.1654584
0.1654584
0.1654583
0.1654582
0.165458
0.1654578
0.1654574
0.165457
0.1654564
0.1654557
0.1654547
0.1654534
0.1654517
0.1654496
0.1654468
0.1654433
0.1654388
0.1654332
0.1654261
0.1654172
0.1654062
0.1653927
0.1653762
0.1653563
0.1653324
0.1653043
0.1652715
0.165458
0.165458
0.165458
0.1654579
0.1654578
0.1654577
0.1654575
0.1654572
0.1654567
0.1654562
0.1654554
0.1654545
0.1654532
0.1654516
0.1654494
0.1654467
0.1654433
0.1654389
0.1654334
0.1654265
0.1654178
0.1654071
0.1653939
0.1653777
0.165358
0.1653343
0.1653059
0.1652721
0.1652323
0.1651858
0.165458
0.165458
0.165458
0.1654579
0.1654578
0.1654577
0.1654575
0.1654572
0.1654567
0.1654562
0.1654554
0.1654545
0.1654532
0.1654515
0.1654494
0.1654467
0.1654433
0.1654389
0.1654334
0.1654264
0.1654178
0.165407
0.1653938
0.1653776
0.165358
0.1653342
0.1653057
0.1652719
0.1652321
0.1651856
0.1654584
0.1654584
0.1654584
0.1654584
0.1654584
0.1654583
0.1654582
0.165458
0.1654578
0.1654574
0.165457
0.1654564
0.1654557
0.1654547
0.1654534
0.1654517
0.1654496
0.1654468
0.1654433
0.1654388
0.1654332
0.1654261
0.1654172
0.1654062
0.1653927
0.1653762
0.1653562
0.1653324
0.1653042
0.1652715
0.1654584
0.1654584
0.1654584
0.1654584
0.1654584
0.1654583
0.1654582
0.165458
0.1654578
0.1654574
0.165457
0.1654564
0.1654557
0.1654547
0.1654534
0.1654517
0.1654496
0.1654468
0.1654433
0.1654389
0.1654332
0.1654261
0.1654173
0.1654063
0.1653928
0.1653763
0.1653564
0.1653326
0.1653045
0.1652718
0.165458
0.165458
0.165458
0.1654579
0.1654579
0.1654577
0.1654575
0.1654572
0.1654568
0.1654562
0.1654554
0.1654545
0.1654532
0.1654516
0.1654495
0.1654468
0.1654433
0.165439
0.1654334
0.1654265
0.1654179
0.1654072
0.165394
0.1653779
0.1653583
0.1653346
0.1653062
0.1652725
0.1652327
0.1651864
0.165458
0.165458
0.165458
0.1654579
0.1654578
0.1654577
0.1654575
0.1654572
0.1654567
0.1654562
0.1654554
0.1654545
0.1654532
0.1654515
0.1654494
0.1654467
0.1654432
0.1654388
0.1654333
0.1654263
0.1654177
0.1654069
0.1653936
0.1653774
0.1653577
0.1653338
0.1653053
0.1652714
0.1652314
0.1651848
0.1654584
0.1654584
0.1654584
0.1654584
0.1654584
0.1654583
0.1654582
0.165458
0.1654578
0.1654574
0.165457
0.1654564
0.1654557
0.1654547
0.1654534
0.1654517
0.1654496
0.1654468
0.1654433
0.1654388
0.1654332
0.165426
0.1654172
0.1654062
0.1653926
0.1653761
0.1653561
0.1653322
0.165304
0.1652712
0.1654584
0.1654584
0.1654584
0.1654584
0.1654584
0.1654583
0.1654582
0.165458
0.1654578
0.1654574
0.165457
0.1654564
0.1654557
0.1654547
0.1654535
0.1654518
0.1654497
0.165447
0.1654435
0.1654391
0.1654335
0.1654264
0.1654176
0.1654067
0.1653933
0.1653769
0.1653571
0.1653334
0.1653054
0.1652728
0.165458
0.165458
0.165458
0.165458
0.1654579
0.1654577
0.1654575
0.1654572
0.1654568
0.1654562
0.1654555
0.1654545
0.1654533
0.1654516
0.1654496
0.1654469
0.1654435
0.1654392
0.1654337
0.1654268
0.1654183
0.1654077
0.1653946
0.1653786
0.1653592
0.1653357
0.1653076
0.1652741
0.1652347
0.1651886
0.165458
0.165458
0.165458
0.1654579
0.1654578
0.1654577
0.1654574
0.1654571
0.1654567
0.1654561
0.1654554
0.1654544
0.1654531
0.1654514
0.1654493
0.1654465
0.165443
0.1654385
0.1654329
0.1654259
0.165417
0.1654061
0.1653926
0.1653762
0.1653561
0.165332
0.165303
0.1652686
0.1652281
0.165181
0.1654584
0.1654584
0.1654584
0.1654584
0.1654583
0.1654583
0.1654581
0.165458
0.1654577
0.1654574
0.165457
0.1654564
0.1654556
0.1654546
0.1654533
0.1654516
0.1654494
0.1654466
0.1654431
0.1654385
0.1654328
0.1654256
0.1654166
0.1654054
0.1653917
0.165375
0.1653549
0.1653308
0.1653024
0.1652693
0.1654584
0.1654584
0.1654584
0.1654584
0.1654583
0.1654583
0.1654581
0.165458
0.1654577
0.1654574
0.165457
0.1654564
0.1654557
0.1654547
0.1654534
0.1654518
0.1654496
0.1654469
0.1654434
0.165439
0.1654335
0.1654265
0.1654177
0.1654069
0.1653935
0.1653772
0.1653574
0.1653337
0.1653057
0.165273
0.165458
0.165458
0.1654579
0.1654579
0.1654578
0.1654576
0.1654574
0.1654571
0.1654566
0.165456
0.1654553
0.1654542
0.1654529
0.1654512
0.165449
0.1654462
0.1654425
0.1654379
0.1654321
0.1654248
0.1654157
0.1654043
0.1653903
0.1653732
0.1653522
0.1653269
0.1652964
0.16526
0.1652169
0.1651662
0.1654551
0.1654551
0.165455
0.1654548
0.1654545
0.1654541
0.1654535
0.1654527
0.1654516
0.1654501
0.1654483
0.1654459
0.165443
0.1654392
0.1654346
0.1654289
0.1654218
0.1654131
0.1654026
0.1653898
0.1653744
0.1653559
0.165334
0.1653079
0.1652773
0.1652414
0.1651998
0.1651516
0.1650964
0.1650335
0.1654566
0.1654566
0.1654566
0.1654565
0.1654564
0.1654562
0.1654559
0.1654555
0.165455
0.1654542
0.1654532
0.1654519
0.1654503
0.1654482
0.1654455
0.1654422
0.1654381
0.1654329
0.1654265
0.1654187
0.1654091
0.1653974
0.1653834
0.1653666
0.1653466
0.1653232
0.1652958
0.1652643
0.1652284
0.1651882
0.1654566
0.1654566
0.1654566
0.1654566
0.1654565
0.1654563
0.165456
0.1654556
0.165455
0.1654542
0.1654532
0.1654519
0.1654503
0.1654482
0.1654455
0.1654421
0.165438
0.1654327
0.1654263
0.1654183
0.1654087
0.1653969
0.1653828
0.1653659
0.1653459
0.1653224
0.1652951
0.1652637
0.1652281
0.1651882
0.1654553
0.1654552
0.1654552
0.165455
0.1654547
0.1654543
0.1654538
0.165453
0.1654519
0.1654505
0.1654488
0.1654466
0.1654437
0.1654402
0.1654358
0.1654304
0.1654237
0.1654155
0.1654056
0.1653936
0.1653791
0.1653618
0.1653413
0.1653171
0.1652888
0.1652558
0.1652176
0.1651738
0.165124
0.1650677
0.1654554
0.1654554
0.1654553
0.1654552
0.1654549
0.1654545
0.1654539
0.1654532
0.1654522
0.1654508
0.1654491
0.165447
0.1654443
0.1654408
0.1654366
0.1654313
0.1654249
0.165417
0.1654073
0.1653957
0.1653817
0.165365
0.1653452
0.1653218
0.1652943
0.1652623
0.1652253
0.1651828
0.1651344
0.1650797
0.1654567
0.1654567
0.1654567
0.1654567
0.1654566
0.1654564
0.1654561
0.1654557
0.1654551
0.1654544
0.1654534
0.1654522
0.1654506
0.1654485
0.165446
0.1654427
0.1654387
0.1654336
0.1654274
0.1654197
0.1654103
0.1653989
0.1653851
0.1653687
0.1653491
0.1653262
0.1652995
0.1652687
0.1652337
0.1651945
0.1654567
0.1654567
0.1654567
0.1654567
0.1654565
0.1654564
0.1654561
0.1654557
0.1654551
0.1654543
0.1654534
0.1654521
0.1654505
0.1654484
0.1654458
0.1654425
0.1654384
0.1654333
0.165427
0.1654192
0.1654097
0.1653982
0.1653843
0.1653677
0.165348
0.1653248
0.1652979
0.1652669
0.1652317
0.1651922
0.1654554
0.1654553
0.1654553
0.1654551
0.1654548
0.1654544
0.1654539
0.1654531
0.1654521
0.1654507
0.165449
0.1654468
0.165444
0.1654406
0.1654363
0.1654309
0.1654244
0.1654163
0.1654066
0.1653948
0.1653806
0.1653636
0.1653435
0.1653197
0.1652918
0.1652593
0.1652217
0.1651786
0.1651294
0.1650739
0.1654554
0.1654554
0.1654553
0.1654551
0.1654549
0.1654545
0.1654539
0.1654531
0.1654521
0.1654508
0.1654491
0.1654469
0.1654441
0.1654407
0.1654364
0.1654311
0.1654245
0.1654166
0.1654068
0.1653951
0.165381
0.1653641
0.1653441
0.1653204
0.1652927
0.1652604
0.165223
0.1651801
0.1651313
0.165076
0.1654567
0.1654567
0.1654567
0.1654567
0.1654565
0.1654564
0.1654561
0.1654557
0.1654551
0.1654544
0.1654534
0.1654521
0.1654505
0.1654484
0.1654458
0.1654426
0.1654385
0.1654334
0.1654271
0.1654193
0.1654098
0.1653983
0.1653845
0.1653679
0.1653483
0.1653252
0.1652983
0.1652674
0.1652322
0.1651929
0.1654567
0.1654567
0.1654567
0.1654567
0.1654565
0.1654564
0.1654561
0.1654557
0.1654551
0.1654543
0.1654534
0.1654521
0.1654505
0.1654484
0.1654458
0.1654425
0.1654384
0.1654333
0.165427
0.1654192
0.1654097
0.1653982
0.1653843
0.1653677
0.165348
0.1653249
0.165298
0.165267
0.1652318
0.1651924
0.1654554
0.1654553
0.1654553
0.1654551
0.1654548
0.1654544
0.1654539
0.1654531
0.1654521
0.1654507
0.165449
0.1654468
0.1654441
0.1654406
0.1654363
0.165431
0.1654244
0.1654164
0.1654067
0.1653949
0.1653807
0.1653638
0.1653437
0.16532
0.1652921
0.1652597
0.1652223
0.1651792
0.1651302
0.1650748
0.1654554
0.1654553
0.1654553
0.1654551
0.1654549
0.1654545
0.1654539
0.1654531
0.1654521
0.1654508
0.165449
0.1654468
0.1654441
0.1654406
0.1654363
0.165431
0.1654245
0.1654165
0.1654067
0.165395
0.1653808
0.1653639
0.1653438
0.1653201
0.1652923
0.16526
0.1652225
0.1651795
0.1651306
0.1650752
0.1654567
0.1654567
0.1654567
0.1654567
0.1654565
0.1654564
0.1654561
0.1654557
0.1654551
0.1654543
0.1654534
0.1654521
0.1654505
0.1654484
0.1654458
0.1654426
0.1654385
0.1654334
0.165427
0.1654193
0.1654098
0.1653983
0.1653844
0.1653678
0.1653481
0.165325
0.1652981
0.1652672
0.165232
0.1651925
0.1654567
0.1654567
0.1654567
0.1654567
0.1654565
0.1654564
0.1654561
0.1654557
0.1654551
0.1654543
0.1654534
0.1654521
0.1654505
0.1654484
0.1654458