/*--------------------------------*- C++ -*----------------------------------*\
| =========                 |                                                 |
| \\      /  F ield         | OpenFOAM: The Open Source CFD Toolbox           |
|  \\    /   O peration     | Version:  4.0                                   |
|   \\  /    A nd           | Web:      www.OpenFOAM.org                      |
|    \\/     M anipulation  |                                                 |
\*---------------------------------------------------------------------------*/
FoamFile
{
    version     2.0;
    format      ascii;
    class       volScalarField;
    location    "60/air";
    object      YH2Oair;
}
// * * * * * * * * * * * * * * * * * * * * * * * * * * * * * * * * * * * * * //

dimensions      [0 0 0 0 0 0 0];

internalField   nonuniform List<scalar> 
39776
(
0.15
0.15
0.15
0.15
0.15
0.15
0.15
0.1500001
0.1500001
0.1500001
0.1500001
0.1500001
0.1500002
0.1500003
0.1500004
0.1500005
0.1500007
0.150001
0.1500014
0.150002
0.1500028
0.1500039
0.1500055
0.1500079
0.1500113
0.1500163
0.1500236
0.1500342
0.1500499
0.1500732
0.15
0.15
0.15
0.15
0.15
0.15
0.15
0.15
0.15
0.1500001
0.1500001
0.1500001
0.1500001
0.1500002
0.1500003
0.1500003
0.1500005
0.1500007
0.1500009
0.1500013
0.1500018
0.1500026
0.1500036
0.1500051
0.1500073
0.1500104
0.1500149
0.1500214
0.1500308
0.1500445
0.15
0.15
0.15
0.15
0.15
0.15
0.15
0.15
0.15
0.1500001
0.1500001
0.1500001
0.1500001
0.1500002
0.1500003
0.1500004
0.1500005
0.1500007
0.150001
0.1500013
0.1500019
0.1500027
0.1500037
0.1500053
0.1500076
0.1500108
0.1500154
0.1500221
0.1500319
0.1500461
0.15
0.15
0.15
0.15
0.15
0.15
0.15
0.1500001
0.1500001
0.1500001
0.1500001
0.1500001
0.1500002
0.1500003
0.1500004
0.1500005
0.1500007
0.150001
0.1500013
0.1500019
0.1500027
0.1500037
0.1500053
0.1500076
0.1500108
0.1500155
0.1500223
0.1500323
0.150047
0.1500687
0.15
0.15
0.15
0.15
0.15
0.15
0.15
0.15
0.1500001
0.1500001
0.1500001
0.1500001
0.1500002
0.1500003
0.1500004
0.1500005
0.1500007
0.1500009
0.1500013
0.1500019
0.1500026
0.1500037
0.1500052
0.1500074
0.1500106
0.1500152
0.1500219
0.1500317
0.1500461
0.1500674
0.15
0.15
0.15
0.15
0.15
0.15
0.15
0.15
0.15
0.1500001
0.1500001
0.1500001
0.1500001
0.1500002
0.1500003
0.1500004
0.1500005
0.1500007
0.150001
0.1500013
0.1500019
0.1500027
0.1500037
0.1500053
0.1500076
0.1500108
0.1500154
0.1500221
0.1500318
0.150046
0.15
0.15
0.15
0.15
0.15
0.15
0.15
0.15
0.15
0.1500001
0.1500001
0.1500001
0.1500001
0.1500002
0.1500003
0.1500004
0.1500005
0.1500007
0.150001
0.1500014
0.1500019
0.1500027
0.1500038
0.1500054
0.1500076
0.1500109
0.1500155
0.1500223
0.150032
0.1500463
0.15
0.15
0.15
0.15
0.15
0.15
0.15
0.1500001
0.1500001
0.1500001
0.1500001
0.1500001
0.1500002
0.1500003
0.1500004
0.1500005
0.1500007
0.150001
0.1500013
0.1500019
0.1500026
0.1500037
0.1500053
0.1500075
0.1500107
0.1500154
0.1500222
0.1500321
0.1500466
0.1500681
0.15
0.15
0.15
0.15
0.15
0.15
0.15
0.1500001
0.1500001
0.1500001
0.1500001
0.1500001
0.1500002
0.1500003
0.1500004
0.1500005
0.1500007
0.150001
0.1500013
0.1500019
0.1500026
0.1500037
0.1500053
0.1500075
0.1500107
0.1500153
0.150022
0.1500319
0.1500464
0.1500678
0.15
0.15
0.15
0.15
0.15
0.15
0.15
0.15
0.15
0.1500001
0.1500001
0.1500001
0.1500001
0.1500002
0.1500003
0.1500004
0.1500005
0.1500007
0.150001
0.1500013
0.1500019
0.1500027
0.1500038
0.1500053
0.1500076
0.1500108
0.1500155
0.1500222
0.1500319
0.1500461
0.15
0.15
0.15
0.15
0.15
0.15
0.15
0.15
0.15
0.1500001
0.1500001
0.1500001
0.1500001
0.1500002
0.1500003
0.1500004
0.1500005
0.1500007
0.150001
0.1500013
0.1500019
0.1500027
0.1500038
0.1500053
0.1500076
0.1500108
0.1500155
0.1500222
0.150032
0.1500462
0.15
0.15
0.15
0.15
0.15
0.15
0.15
0.1500001
0.1500001
0.1500001
0.1500001
0.1500001
0.1500002
0.1500003
0.1500004
0.1500005
0.1500007
0.150001
0.1500013
0.1500019
0.1500026
0.1500037
0.1500053
0.1500075
0.1500107
0.1500153
0.1500221
0.150032
0.1500465
0.1500679
0.15
0.15
0.15
0.15
0.15
0.15
0.15
0.1500001
0.1500001
0.1500001
0.1500001
0.1500001
0.1500002
0.1500003
0.1500004
0.1500005
0.1500007
0.150001
0.1500013
0.1500019
0.1500026
0.1500037
0.1500053
0.1500075
0.1500107
0.1500153
0.1500221
0.150032
0.1500464
0.1500679
0.15
0.15
0.15
0.15
0.15
0.15
0.15
0.15
0.15
0.1500001
0.1500001
0.1500001
0.1500001
0.1500002
0.1500003
0.1500004
0.1500005
0.1500007
0.150001
0.1500014
0.1500019
0.1500027
0.1500038
0.1500054
0.1500076
0.1500108
0.1500155
0.1500222
0.150032
0.1500462
0.15
0.15
0.15
0.15
0.15
0.15
0.15
0.15
0.15
0.1500001
0.1500001
0.1500001
0.1500001
0.1500002
0.1500003
0.1500004
0.1500005
0.1500007
0.150001
0.1500014
0.1500019
0.1500027
0.1500038
0.1500054
0.1500076
0.1500108
0.1500155
0.1500222
0.150032
0.1500462
0.15
0.15
0.15
0.15
0.15
0.15
0.15
0.1500001
0.1500001
0.1500001
0.1500001
0.1500001
0.1500002
0.1500003
0.1500004
0.1500005
0.1500007
0.150001
0.1500013
0.1500019
0.1500026
0.1500037
0.1500053
0.1500075
0.1500107
0.1500153
0.1500221
0.150032
0.1500465
0.1500679
0.15
0.15
0.15
0.15
0.15
0.15
0.15
0.1500001
0.1500001
0.1500001
0.1500001
0.1500001
0.1500002
0.1500003
0.1500004
0.1500005
0.1500007
0.150001
0.1500013
0.1500019
0.1500026
0.1500037
0.1500053
0.1500075
0.1500107
0.1500154
0.1500221
0.150032
0.1500465
0.1500679
0.15
0.15
0.15
0.15
0.15
0.15
0.15
0.15
0.15
0.1500001
0.1500001
0.1500001
0.1500001
0.1500002
0.1500003
0.1500004
0.1500005
0.1500007
0.150001
0.1500013
0.1500019
0.1500027
0.1500038
0.1500054
0.1500076
0.1500108
0.1500155
0.1500222
0.150032
0.1500462
0.15
0.15
0.15
0.15
0.15
0.15
0.15
0.15
0.15
0.1500001
0.1500001
0.1500001
0.1500001
0.1500002
0.1500003
0.1500004
0.1500005
0.1500007
0.150001
0.1500013
0.1500019
0.1500027
0.1500038
0.1500053
0.1500076
0.1500108
0.1500155
0.1500222
0.1500319
0.1500461
0.15
0.15
0.15
0.15
0.15
0.15
0.15
0.1500001
0.1500001
0.1500001
0.1500001
0.1500001
0.1500002
0.1500003
0.1500004
0.1500005
0.1500007
0.150001
0.1500013
0.1500019
0.1500026
0.1500037
0.1500053
0.1500075
0.1500107
0.1500153
0.1500221
0.1500319
0.1500464
0.1500678
0.15
0.15
0.15
0.15
0.15
0.15
0.15
0.1500001
0.1500001
0.1500001
0.1500001
0.1500001
0.1500002
0.1500003
0.1500004
0.1500005
0.1500007
0.150001
0.1500013
0.1500019
0.1500026
0.1500037
0.1500053
0.1500075
0.1500107
0.1500154
0.1500222
0.1500321
0.1500467
0.1500682
0.15
0.15
0.15
0.15
0.15
0.15
0.15
0.15
0.15
0.1500001
0.1500001
0.1500001
0.1500001
0.1500002
0.1500003
0.1500004
0.1500005
0.1500007
0.150001
0.1500014
0.1500019
0.1500027
0.1500038
0.1500054
0.1500076
0.1500109
0.1500155
0.1500223
0.1500321
0.1500463
0.15
0.15
0.15
0.15
0.15
0.15
0.15
0.15
0.15
0.1500001
0.1500001
0.1500001
0.1500001
0.1500002
0.1500003
0.1500004
0.1500005
0.1500007
0.150001
0.1500013
0.1500019
0.1500027
0.1500037
0.1500053
0.1500075
0.1500108
0.1500154
0.1500221
0.1500318
0.150046
0.15
0.15
0.15
0.15
0.15
0.15
0.15
0.15
0.1500001
0.1500001
0.1500001
0.1500001
0.1500002
0.1500003
0.1500004
0.1500005
0.1500007
0.1500009
0.1500013
0.1500018
0.1500026
0.1500037
0.1500052
0.1500074
0.1500106
0.1500152
0.1500219
0.1500317
0.1500461
0.1500673
0.15
0.15
0.15
0.15
0.15
0.15
0.15
0.1500001
0.1500001
0.1500001
0.1500001
0.1500001
0.1500002
0.1500003
0.1500004
0.1500005
0.1500007
0.150001
0.1500013
0.1500019
0.1500027
0.1500037
0.1500053
0.1500076
0.1500108
0.1500155
0.1500223
0.1500323
0.1500469
0.1500686
0.15
0.15
0.15
0.15
0.15
0.15
0.15
0.15
0.15
0.1500001
0.1500001
0.1500001
0.1500001
0.1500002
0.1500003
0.1500004
0.1500005
0.1500007
0.150001
0.1500013
0.1500019
0.1500026
0.1500037
0.1500053
0.1500075
0.1500107
0.1500154
0.1500221
0.1500318
0.1500459
0.15
0.15
0.15
0.15
0.15
0.15
0.15
0.15
0.15
0.1500001
0.1500001
0.1500001
0.1500001
0.1500002
0.1500003
0.1500003
0.1500005
0.1500007
0.1500009
0.1500013
0.1500018
0.1500026
0.1500036
0.1500051
0.1500073
0.1500104
0.1500148
0.1500213
0.1500306
0.1500443
0.15
0.15
0.15
0.15
0.15
0.15
0.15
0.1500001
0.1500001
0.1500001
0.1500001
0.1500001
0.1500002
0.1500003
0.1500004
0.1500005
0.1500007
0.150001
0.1500014
0.1500019
0.1500027
0.1500039
0.1500055
0.1500079
0.1500113
0.1500162
0.1500234
0.150034
0.1500496
0.1500728
0.1500005
0.1500005
0.1500005
0.1500006
0.1500006
0.1500007
0.1500008
0.150001
0.1500012
0.1500015
0.1500018
0.1500024
0.150003
0.1500039
0.1500051
0.1500066
0.1500086
0.1500112
0.1500146
0.1500189
0.1500244
0.1500314
0.1500404
0.1500517
0.1500661
0.150084
0.1501066
0.1501346
0.1501692
0.1502116
0.1500004
0.1500004
0.1500004
0.1500004
0.1500004
0.1500005
0.1500005
0.1500006
0.1500007
0.1500009
0.1500012
0.1500015
0.1500019
0.1500024
0.1500032
0.1500041
0.1500054
0.150007
0.1500091
0.1500118
0.1500152
0.1500197
0.1500254
0.1500326
0.1500417
0.1500532
0.1500675
0.1500853
0.1501073
0.150134
0.1500004
0.1500004
0.1500004
0.1500004
0.1500004
0.1500005
0.1500005
0.1500006
0.1500007
0.1500009
0.1500012
0.1500015
0.1500019
0.1500025
0.1500032
0.1500042
0.1500054
0.1500071
0.1500092
0.150012
0.1500155
0.1500201
0.1500259
0.1500333
0.1500426
0.1500544
0.150069
0.1500872
0.1501095
0.1501366
0.1500005
0.1500005
0.1500005
0.1500005
0.1500006
0.1500007
0.1500008
0.1500009
0.1500011
0.1500014
0.1500018
0.1500023
0.1500029
0.1500038
0.1500049
0.1500064
0.1500083
0.1500108
0.150014
0.1500182
0.1500234
0.1500302
0.1500388
0.1500496
0.1500632
0.1500803
0.1501015
0.150128
0.1501605
0.1502003
0.1500005
0.1500005
0.1500005
0.1500005
0.1500006
0.1500006
0.1500008
0.1500009
0.1500011
0.1500014
0.1500017
0.1500022
0.1500029
0.1500037
0.1500048
0.1500063
0.1500081
0.1500106
0.1500137
0.1500177
0.1500229
0.1500294
0.1500378
0.1500484
0.1500617
0.1500783
0.1500991
0.1501249
0.1501568
0.1501957
0.1500004
0.1500004
0.1500004
0.1500004
0.1500004
0.1500004
0.1500005
0.1500006
0.1500007
0.1500009
0.1500011
0.1500015
0.1500019
0.1500024
0.1500031
0.1500041
0.1500053
0.150007
0.150009
0.1500118
0.1500153
0.1500197
0.1500255
0.1500327
0.1500419
0.1500535
0.150068
0.150086
0.1501081
0.1501349
0.1500004
0.1500004
0.1500004
0.1500004
0.1500004
0.1500004
0.1500005
0.1500006
0.1500007
0.1500009
0.1500011
0.1500015
0.1500019
0.1500024
0.1500032
0.1500041
0.1500054
0.150007
0.1500091
0.1500119
0.1500154
0.1500199
0.1500257
0.150033
0.1500423
0.1500539
0.1500685
0.1500866
0.1501088
0.1501357
0.1500005
0.1500005
0.1500005
0.1500005
0.1500006
0.1500007
0.1500008
0.1500009
0.1500011
0.1500014
0.1500018
0.1500023
0.1500029
0.1500038
0.1500049
0.1500063
0.1500082
0.1500107
0.1500139
0.1500179
0.1500231
0.1500298
0.1500383
0.1500489
0.1500624
0.1500792
0.1501003
0.1501264
0.1501586
0.1501979
0.1500005
0.1500005
0.1500005
0.1500005
0.1500006
0.1500007
0.1500008
0.1500009
0.1500011
0.1500014
0.1500018
0.1500022
0.1500029
0.1500037
0.1500049
0.1500063
0.1500082
0.1500106
0.1500138
0.1500178
0.150023
0.1500297
0.1500381
0.1500487
0.1500621
0.1500789
0.1500998
0.1501258
0.1501578
0.1501969
0.1500004
0.1500004
0.1500004
0.1500004
0.1500004
0.1500004
0.1500005
0.1500006
0.1500007
0.1500009
0.1500011
0.1500015
0.1500019
0.1500024
0.1500032
0.1500041
0.1500054
0.150007
0.1500091
0.1500118
0.1500153
0.1500199
0.1500256
0.1500329
0.1500422
0.1500538
0.1500683
0.1500864
0.1501085
0.1501355
0.1500004
0.1500004
0.1500004
0.1500004
0.1500004
0.1500004
0.1500005
0.1500006
0.1500007
0.1500009
0.1500011
0.1500015
0.1500019
0.1500024
0.1500032
0.1500041
0.1500054
0.150007
0.1500091
0.1500119
0.1500154
0.1500199
0.1500257
0.150033
0.1500422
0.1500539
0.1500685
0.1500865
0.1501087
0.1501357
0.1500005
0.1500005
0.1500005
0.1500005
0.1500006
0.1500007
0.1500008
0.1500009
0.1500011
0.1500014
0.1500018
0.1500023
0.1500029
0.1500038
0.1500049
0.1500063
0.1500082
0.1500107
0.1500138
0.1500179
0.1500231
0.1500298
0.1500382
0.1500489
0.1500623
0.1500791
0.1501001
0.1501261
0.1501583
0.1501975
0.1500005
0.1500005
0.1500005
0.1500005
0.1500006
0.1500007
0.1500008
0.1500009
0.1500011
0.1500014
0.1500018
0.1500023
0.1500029
0.1500038
0.1500049
0.1500063
0.1500082
0.1500107
0.1500138
0.1500179
0.1500231
0.1500297
0.1500382
0.1500488
0.1500622
0.1500791
0.1501
0.1501261
0.1501582
0.1501974
0.1500004
0.1500004
0.1500004
0.1500004
0.1500004
0.1500004
0.1500005
0.1500006
0.1500007
0.1500009
0.1500011
0.1500015
0.1500019
0.1500024
0.1500032
0.1500041
0.1500054
0.150007
0.1500091
0.1500119
0.1500154
0.1500199
0.1500257
0.150033
0.1500422
0.1500539
0.1500685
0.1500865
0.1501087
0.1501357
0.1500004
0.1500004
0.1500004
0.1500004
0.1500004
0.1500004
0.1500005
0.1500006
0.1500007
0.1500009
0.1500011
0.1500015
0.1500019
0.1500024
0.1500032
0.1500041
0.1500054
0.150007
0.1500091
0.1500119
0.1500154
0.1500199
0.1500257
0.150033
0.1500422
0.1500539
0.1500685
0.1500865
0.1501087
0.1501357
0.1500005
0.1500005
0.1500005
0.1500005
0.1500006
0.1500007
0.1500008
0.1500009
0.1500011
0.1500014
0.1500018
0.1500023
0.1500029
0.1500038
0.1500049
0.1500063
0.1500082
0.1500107
0.1500138
0.1500179
0.1500231
0.1500297
0.1500382
0.1500488
0.1500622
0.1500791
0.1501
0.1501261
0.1501582
0.1501974
0.1500005
0.1500005
0.1500005
0.1500005
0.1500006
0.1500007
0.1500008
0.1500009
0.1500011
0.1500014
0.1500018
0.1500023
0.1500029
0.1500038
0.1500049
0.1500063
0.1500082
0.1500107
0.1500138
0.1500179
0.1500231
0.1500298
0.1500382
0.1500489
0.1500623
0.1500791
0.1501001
0.1501261
0.1501582
0.1501975
0.1500004
0.1500004
0.1500004
0.1500004
0.1500004
0.1500004
0.1500005
0.1500006
0.1500007
0.1500009
0.1500011
0.1500015
0.1500019
0.1500024
0.1500032
0.1500041
0.1500054
0.150007
0.1500091
0.1500119
0.1500154
0.1500199
0.1500257
0.150033
0.1500422
0.1500539
0.1500685
0.1500865
0.1501087
0.1501357
0.1500004
0.1500004
0.1500004
0.1500004
0.1500004
0.1500004
0.1500005
0.1500006
0.1500007
0.1500009
0.1500011
0.1500015
0.1500019
0.1500024
0.1500032
0.1500041
0.1500054
0.150007
0.1500091
0.1500118
0.1500154
0.1500199
0.1500256
0.1500329
0.1500422
0.1500538
0.1500684
0.1500864
0.1501086
0.1501355
0.1500005
0.1500005
0.1500005
0.1500005
0.1500006
0.1500007
0.1500008
0.1500009
0.1500011
0.1500014
0.1500018
0.1500022
0.1500029
0.1500037
0.1500049
0.1500063
0.1500082
0.1500106
0.1500138
0.1500179
0.1500231
0.1500297
0.1500381
0.1500487
0.1500621
0.1500789
0.1500999
0.1501258
0.1501579
0.150197
0.1500005
0.1500005
0.1500005
0.1500005
0.1500006
0.1500007
0.1500008
0.1500009
0.1500011
0.1500014
0.1500018
0.1500023
0.1500029
0.1500038
0.1500049
0.1500063
0.1500082
0.1500107
0.1500139
0.1500179
0.1500232
0.1500298
0.1500383
0.150049
0.1500624
0.1500793
0.1501004
0.1501265
0.1501587
0.150198
0.1500004
0.1500004
0.1500004
0.1500004
0.1500004
0.1500004
0.1500005
0.1500006
0.1500007
0.1500009
0.1500011
0.1500015
0.1500019
0.1500024
0.1500032
0.1500041
0.1500054
0.150007
0.1500091
0.1500119
0.1500154
0.1500199
0.1500257
0.150033
0.1500423
0.150054
0.1500685
0.1500866
0.1501088
0.1501358
0.1500004
0.1500004
0.1500004
0.1500004
0.1500004
0.1500004
0.1500005
0.1500006
0.1500007
0.1500009
0.1500011
0.1500015
0.1500019
0.1500024
0.1500031
0.1500041
0.1500053
0.1500069
0.150009
0.1500118
0.1500152
0.1500197
0.1500254
0.1500327
0.1500419
0.1500535
0.150068
0.1500859
0.150108
0.1501349
0.1500005
0.1500005
0.1500005
0.1500005
0.1500006
0.1500006
0.1500008
0.1500009
0.1500011
0.1500014
0.1500017
0.1500022
0.1500029
0.1500037
0.1500048
0.1500063
0.1500081
0.1500106
0.1500137
0.1500177
0.1500229
0.1500294
0.1500378
0.1500483
0.1500616
0.1500783
0.1500991
0.1501249
0.1501567
0.1501956
0.1500005
0.1500005
0.1500005
0.1500005
0.1500006
0.1500007
0.1500008
0.1500009
0.1500011
0.1500014
0.1500018
0.1500023
0.1500029
0.1500038
0.1500049
0.1500064
0.1500083
0.1500108
0.150014
0.1500181
0.1500234
0.1500302
0.1500387
0.1500495
0.1500631
0.1500802
0.1501015
0.1501279
0.1501604
0.1502001
0.1500004
0.1500004
0.1500004
0.1500004
0.1500004
0.1500005
0.1500005
0.1500006
0.1500007
0.1500009
0.1500012
0.1500015
0.1500019
0.1500025
0.1500032
0.1500042
0.1500054
0.1500071
0.1500092
0.150012
0.1500155
0.1500201
0.1500259
0.1500332
0.1500426
0.1500543
0.1500689
0.1500871
0.1501094
0.1501364
0.1500004
0.1500004
0.1500004
0.1500004
0.1500004
0.1500005
0.1500005
0.1500006
0.1500007
0.1500009
0.1500012
0.1500015
0.1500019
0.1500024
0.1500032
0.1500041
0.1500053
0.150007
0.150009
0.1500117
0.1500152
0.1500196
0.1500253
0.1500325
0.1500416
0.150053
0.1500673
0.1500851
0.150107
0.1501337
0.1500005
0.1500005
0.1500005
0.1500006
0.1500006
0.1500007
0.1500008
0.1500009
0.1500012
0.1500015
0.1500018
0.1500024
0.150003
0.1500039
0.1500051
0.1500066
0.1500086
0.1500112
0.1500145
0.1500188
0.1500243
0.1500313
0.1500403
0.1500516
0.1500659
0.1500838
0.1501062
0.1501342
0.1501687
0.150211
0.1500025
0.1500025
0.1500026
0.1500027
0.1500028
0.1500031
0.1500035
0.150004
0.1500047
0.1500056
0.1500068
0.1500084
0.1500104
0.1500129
0.1500161
0.1500201
0.1500251
0.1500314
0.1500391
0.1500487
0.1500605
0.1500748
0.1500921
0.150113
0.150138
0.1501677
0.150203
0.1502443
0.1502926
0.1503485
0.1500017
0.1500017
0.1500017
0.1500018
0.1500018
0.150002
0.1500022
0.1500025
0.1500029
0.1500034
0.1500041
0.150005
0.1500062
0.1500077
0.1500096
0.1500121
0.1500151
0.150019
0.1500238
0.1500297
0.1500371
0.1500462
0.1500572
0.1500706
0.1500868
0.1501062
0.1501291
0.1501561
0.1501873
0.1502231
0.1500017
0.1500017
0.1500017
0.1500017
0.1500018
0.150002
0.1500022
0.1500025
0.1500029
0.1500034
0.1500041
0.150005
0.1500062
0.1500077
0.1500097
0.1500121
0.1500152
0.1500191
0.150024
0.15003
0.1500375
0.1500466
0.1500578
0.1500714
0.1500878
0.1501073
0.1501304
0.1501575
0.1501888
0.1502245
0.1500024
0.1500024
0.1500025
0.1500025
0.1500027
0.150003
0.1500033
0.1500038
0.1500045
0.1500054
0.1500065
0.150008
0.1500099
0.1500123
0.1500153
0.1500191
0.1500238
0.1500298
0.1500371
0.1500461
0.1500571
0.1500706
0.1500868
0.1501063
0.1501296
0.1501572
0.1501898
0.1502279
0.150272
0.1503227
0.1500023
0.1500023
0.1500024
0.1500025
0.1500026
0.1500029
0.1500032
0.1500037
0.1500044
0.1500052
0.1500063
0.1500078
0.1500096
0.1500119
0.1500149
0.1500186
0.1500232
0.150029
0.1500361
0.1500449
0.1500556
0.1500687
0.1500845
0.1501034
0.1501261
0.1501531
0.1501848
0.1502219
0.150265
0.1503147
0.1500016
0.1500016
0.1500016
0.1500017
0.1500018
0.1500019
0.1500021
0.1500024
0.1500028
0.1500033
0.150004
0.1500049
0.150006
0.1500075
0.1500094
0.1500118
0.1500148
0.1500186
0.1500233
0.1500292
0.1500365
0.1500454
0.1500563
0.1500696
0.1500856
0.1501047
0.1501274
0.150154
0.1501848
0.1502201
0.1500017
0.1500016
0.1500017
0.1500017
0.1500018
0.1500019
0.1500021
0.1500024
0.1500028
0.1500033
0.150004
0.1500049
0.1500061
0.1500076
0.1500095
0.1500119
0.1500149
0.1500187
0.1500235
0.1500295
0.1500368
0.1500458
0.1500568
0.1500702
0.1500864
0.1501056
0.1501285
0.1501552
0.1501862
0.1502216
0.1500024
0.1500024
0.1500024
0.1500025
0.1500027
0.1500029
0.1500033
0.1500037
0.1500044
0.1500053
0.1500064
0.1500079
0.1500097
0.1500121
0.1500151
0.1500188
0.1500235
0.1500293
0.1500365
0.1500454
0.1500563
0.1500695
0.1500855
0.1501047
0.1501277
0.1501549
0.150187
0.1502246
0.1502682
0.1503183
0.1500023
0.1500024
0.1500024
0.1500025
0.1500026
0.1500029
0.1500032
0.1500037
0.1500044
0.1500052
0.1500064
0.1500078
0.1500097
0.150012
0.150015
0.1500187
0.1500234
0.1500292
0.1500364
0.1500452
0.150056
0.1500692
0.1500851
0.1501042
0.1501271
0.1501542
0.1501861
0.1502235
0.1502669
0.1503168
0.1500017
0.1500016
0.1500017
0.1500017
0.1500018
0.1500019
0.1500021
0.1500024
0.1500028
0.1500033
0.150004
0.1500049
0.1500061
0.1500076
0.1500095
0.1500119
0.1500149
0.1500187
0.1500235
0.1500294
0.1500367
0.1500457
0.1500567
0.1500701
0.1500862
0.1501054
0.1501282
0.1501548
0.1501858
0.1502211
0.1500017
0.1500017
0.1500017
0.1500017
0.1500018
0.1500019
0.1500021
0.1500024
0.1500028
0.1500033
0.150004
0.1500049
0.1500061
0.1500076
0.1500095
0.1500119
0.1500149
0.1500187
0.1500235
0.1500295
0.1500368
0.1500458
0.1500568
0.1500702
0.1500863
0.1501056
0.1501284
0.1501551
0.1501861
0.1502215
0.1500023
0.1500024
0.1500024
0.1500025
0.1500026
0.1500029
0.1500032
0.1500037
0.1500044
0.1500053
0.1500064
0.1500078
0.1500097
0.1500121
0.150015
0.1500188
0.1500235
0.1500293
0.1500365
0.1500453
0.1500562
0.1500694
0.1500854
0.1501045
0.1501274
0.1501546
0.1501867
0.1502242
0.1502676
0.1503176
0.1500023
0.1500024
0.1500024
0.1500025
0.1500026
0.1500029
0.1500032
0.1500037
0.1500044
0.1500053
0.1500064
0.1500078
0.1500097
0.150012
0.150015
0.1500188
0.1500234
0.1500292
0.1500364
0.1500453
0.1500561
0.1500693
0.1500853
0.1501044
0.1501273
0.1501545
0.1501865
0.150224
0.1502674
0.1503174
0.1500017
0.1500017
0.1500017
0.1500017
0.1500018
0.1500019
0.1500021
0.1500024
0.1500028
0.1500033
0.150004
0.1500049
0.1500061
0.1500076
0.1500095
0.1500119
0.1500149
0.1500187
0.1500235
0.1500294
0.1500368
0.1500458
0.1500568
0.1500702
0.1500863
0.1501055
0.1501283
0.1501551
0.150186
0.1502214
0.1500017
0.1500017
0.1500017
0.1500017
0.1500018
0.1500019
0.1500021
0.1500024
0.1500028
0.1500033
0.150004
0.1500049
0.1500061
0.1500076
0.1500095
0.1500119
0.1500149
0.1500187
0.1500235
0.1500294
0.1500368
0.1500458
0.1500568
0.1500702
0.1500863
0.1501055
0.1501283
0.1501551
0.150186
0.1502214
0.1500023
0.1500024
0.1500024
0.1500025
0.1500026
0.1500029
0.1500032
0.1500037
0.1500044
0.1500053
0.1500064
0.1500078
0.1500097
0.150012
0.150015
0.1500188
0.1500234
0.1500292
0.1500364
0.1500453
0.1500561
0.1500693
0.1500853
0.1501044
0.1501273
0.1501545
0.1501865
0.150224
0.1502674
0.1503174
0.1500023
0.1500024
0.1500024
0.1500025
0.1500026
0.1500029
0.1500032
0.1500037
0.1500044
0.1500053
0.1500064
0.1500078
0.1500097
0.1500121
0.150015
0.1500188
0.1500235
0.1500293
0.1500365
0.1500453
0.1500562
0.1500694
0.1500853
0.1501045
0.1501274
0.1501546
0.1501867
0.1502241
0.1502676
0.1503176
0.1500017
0.1500017
0.1500017
0.1500017
0.1500018
0.1500019
0.1500021
0.1500024
0.1500028
0.1500033
0.150004
0.1500049
0.1500061
0.1500076
0.1500095
0.1500119
0.1500149
0.1500187
0.1500235
0.1500295
0.1500368
0.1500458
0.1500568
0.1500702
0.1500863
0.1501056
0.1501284
0.1501551
0.1501861
0.1502214
0.1500017
0.1500016
0.1500017
0.1500017
0.1500018
0.1500019
0.1500021
0.1500024
0.1500028
0.1500033
0.150004
0.1500049
0.1500061
0.1500076
0.1500095
0.1500119
0.1500149
0.1500187
0.1500235
0.1500294
0.1500367
0.1500457
0.1500567
0.1500701
0.1500862
0.1501054
0.1501282
0.1501549
0.1501858
0.1502211
0.1500023
0.1500024
0.1500024
0.1500025
0.1500026
0.1500029
0.1500032
0.1500037
0.1500044
0.1500052
0.1500064
0.1500078
0.1500097
0.150012
0.150015
0.1500187
0.1500234
0.1500292
0.1500364
0.1500452
0.150056
0.1500692
0.1500851
0.1501043
0.1501271
0.1501542
0.1501862
0.1502236
0.150267
0.1503168
0.1500024
0.1500024
0.1500024
0.1500025
0.1500027
0.1500029
0.1500033
0.1500037
0.1500044
0.1500053
0.1500064
0.1500079
0.1500097
0.1500121
0.1500151
0.1500188
0.1500235
0.1500293
0.1500365
0.1500454
0.1500563
0.1500695
0.1500855
0.1501048
0.1501278
0.150155
0.1501871
0.1502247
0.1502683
0.1503185
0.1500017
0.1500017
0.1500017
0.1500017
0.1500018
0.1500019
0.1500021
0.1500024
0.1500028
0.1500033
0.150004
0.1500049
0.1500061
0.1500076
0.1500095
0.1500119
0.1500149
0.1500188
0.1500235
0.1500295
0.1500368
0.1500458
0.1500569
0.1500703
0.1500864
0.1501057
0.1501285
0.1501553
0.1501863
0.1502217
0.1500016
0.1500016
0.1500016
0.1500017
0.1500018
0.1500019
0.1500021
0.1500024
0.1500028
0.1500033
0.150004
0.1500049
0.150006
0.1500075
0.1500094
0.1500118
0.1500148
0.1500186
0.1500233
0.1500292
0.1500364
0.1500454
0.1500563
0.1500696
0.1500856
0.1501047
0.1501274
0.150154
0.1501848
0.15022
0.1500023
0.1500023
0.1500024
0.1500025
0.1500026
0.1500029
0.1500032
0.1500037
0.1500043
0.1500052
0.1500063
0.1500078
0.1500096
0.1500119
0.1500149
0.1500186
0.1500232
0.1500289
0.1500361
0.1500448
0.1500556
0.1500686
0.1500844
0.1501034
0.1501261
0.150153
0.1501847
0.1502219
0.150265
0.1503145
0.1500024
0.1500024
0.1500025
0.1500025
0.1500027
0.150003
0.1500033
0.1500038
0.1500045
0.1500054
0.1500065
0.150008
0.1500099
0.1500123
0.1500153
0.1500191
0.1500238
0.1500297
0.1500371
0.1500461
0.1500571
0.1500705
0.1500868
0.1501062
0.1501295
0.1501572
0.1501897
0.1502277
0.1502719
0.1503226
0.1500017
0.1500017
0.1500017
0.1500017
0.1500018
0.150002
0.1500022
0.1500025
0.1500029
0.1500034
0.1500041
0.150005
0.1500062
0.1500077
0.1500097
0.1500121
0.1500152
0.1500191
0.1500239
0.15003
0.1500374
0.1500466
0.1500578
0.1500713
0.1500877
0.1501072
0.1501303
0.1501573
0.1501886
0.1502243
0.1500017
0.1500017
0.1500017
0.1500018
0.1500018
0.150002
0.1500022
0.1500025
0.1500029
0.1500034
0.1500041
0.150005
0.1500062
0.1500077
0.1500096
0.150012
0.1500151
0.1500189
0.1500237
0.1500297
0.150037
0.1500461
0.1500571
0.1500705
0.1500867
0.150106
0.1501289
0.1501558
0.150187
0.1502227
0.1500025
0.1500025
0.1500026
0.1500027
0.1500028
0.1500031
0.1500035
0.150004
0.1500047
0.1500056
0.1500068
0.1500084
0.1500103
0.1500129
0.150016
0.1500201
0.1500251
0.1500313
0.1500391
0.1500486
0.1500603
0.1500746
0.1500919
0.1501127
0.1501377
0.1501674
0.1502025
0.1502438
0.150292
0.1503478
0.1500075
0.1500075
0.1500077
0.1500079
0.1500083
0.150009
0.1500099
0.1500111
0.1500128
0.1500148
0.1500175
0.1500208
0.1500249
0.15003
0.1500363
0.1500439
0.1500531
0.1500642
0.1500775
0.1500933
0.1501121
0.1501343
0.1501603
0.1501906
0.1502257
0.1502663
0.1503129
0.150366
0.1504262
0.150494
0.150005
0.150005
0.1500051
0.1500051
0.1500053
0.1500056
0.1500061
0.1500067
0.1500076
0.1500088
0.1500103
0.1500122
0.1500146
0.1500177
0.1500214
0.150026
0.1500317
0.1500386
0.1500469
0.150057
0.1500691
0.1500834
0.1501004
0.1501203
0.1501436
0.1501704
0.1502011
0.1502359
0.1502749
0.1503179
0.1500049
0.1500049
0.1500049
0.150005
0.1500052
0.1500055
0.150006
0.1500066
0.1500075
0.1500086
0.1500101
0.150012
0.1500144
0.1500174
0.1500212
0.1500258
0.1500314
0.1500383
0.1500466
0.1500566
0.1500686
0.1500829
0.1500998
0.1501196
0.1501426
0.1501691
0.1501994
0.1502337
0.150272
0.1503143
0.1500071
0.1500071
0.1500072
0.1500075
0.1500079
0.1500085
0.1500093
0.1500105
0.150012
0.1500139
0.1500164
0.1500195
0.1500233
0.150028
0.1500338
0.1500409
0.1500494
0.1500596
0.1500719
0.1500865
0.1501037
0.150124
0.1501476
0.1501751
0.1502069
0.1502434
0.150285
0.1503322
0.1503852
0.1504444
0.1500068
0.1500069
0.150007
0.1500072
0.1500076
0.1500082
0.150009
0.1500101
0.1500116
0.1500135
0.1500159
0.1500189
0.1500226
0.1500272
0.1500328
0.1500397
0.1500479
0.1500579
0.1500698
0.1500839
0.1501006
0.1501203
0.1501433
0.15017
0.1502009
0.1502363
0.1502768
0.1503227
0.1503744
0.1504322
0.1500047
0.1500047
0.1500048
0.1500048
0.150005
0.1500053
0.1500057
0.1500064
0.1500072
0.1500083
0.1500098
0.1500116
0.1500139
0.1500168
0.1500204
0.1500249
0.1500303
0.150037
0.150045
0.1500548
0.1500664
0.1500803
0.1500967
0.150116
0.1501384
0.1501643
0.150194
0.1502275
0.1502651
0.1503067
0.1500048
0.1500048
0.1500048
0.1500049
0.150005
0.1500053
0.1500058
0.1500064
0.1500073
0.1500084
0.1500099
0.1500117
0.1500141
0.150017
0.1500206
0.1500251
0.1500306
0.1500373
0.1500455
0.1500553
0.1500671
0.1500811
0.1500977
0.1501171
0.1501397
0.1501658
0.1501956
0.1502294
0.1502672
0.150309
0.1500069
0.150007
0.1500071
0.1500073
0.1500077
0.1500083
0.1500091
0.1500102
0.1500117
0.1500136
0.1500161
0.1500191
0.1500229
0.1500275
0.1500332
0.1500401
0.1500485
0.1500586
0.1500706
0.150085
0.1501019
0.1501218
0.1501451
0.1501722
0.1502035
0.1502395
0.1502805
0.150327
0.1503793
0.1504378
0.1500069
0.1500069
0.150007
0.1500073
0.1500077
0.1500083
0.1500091
0.1500102
0.1500117
0.1500136
0.150016
0.150019
0.1500228
0.1500274
0.1500331
0.15004
0.1500483
0.1500583
0.1500703
0.1500846
0.1501014
0.1501213
0.1501444
0.1501714
0.1502025
0.1502383
0.1502791
0.1503254
0.1503775
0.1504358
0.1500048
0.1500048
0.1500048
0.1500049
0.150005
0.1500053
0.1500058
0.1500064
0.1500073
0.1500084
0.1500099
0.1500117
0.1500141
0.150017
0.1500206
0.1500251
0.1500306
0.1500373
0.1500454
0.1500552
0.150067
0.1500809
0.1500974
0.1501168
0.1501394
0.1501654
0.1501952
0.1502289
0.1502667
0.1503084
0.1500048
0.1500048
0.1500048
0.1500049
0.150005
0.1500053
0.1500058
0.1500064
0.1500073
0.1500084
0.1500099
0.1500117
0.1500141
0.150017
0.1500206
0.1500251
0.1500306
0.1500373
0.1500455
0.1500553
0.1500671
0.1500811
0.1500976
0.150117
0.1501396
0.1501657
0.1501956
0.1502293
0.1502671
0.1503089
0.1500069
0.1500069
0.1500071
0.1500073
0.1500077
0.1500083
0.1500091
0.1500102
0.1500117
0.1500136
0.150016
0.1500191
0.1500228
0.1500275
0.1500332
0.1500401
0.1500484
0.1500585
0.1500705
0.1500848
0.1501017
0.1501216
0.1501449
0.1501719
0.1502031
0.150239
0.1502799
0.1503264
0.1503786
0.150437
0.1500069
0.1500069
0.1500071
0.1500073
0.1500077
0.1500083
0.1500091
0.1500102
0.1500117
0.1500136
0.150016
0.1500191
0.1500228
0.1500274
0.1500331
0.15004
0.1500484
0.1500584
0.1500704
0.1500847
0.1501016
0.1501215
0.1501447
0.1501717
0.1502029
0.1502388
0.1502797
0.150326
0.1503782
0.1504366
0.1500048
0.1500048
0.1500048
0.1500049
0.150005
0.1500053
0.1500058
0.1500064
0.1500073
0.1500084
0.1500099
0.1500117
0.1500141
0.150017
0.1500206
0.1500251
0.1500306
0.1500373
0.1500454
0.1500553
0.150067
0.150081
0.1500975
0.1501169
0.1501395
0.1501656
0.1501954
0.1502292
0.150267
0.1503087
0.1500048
0.1500048
0.1500048
0.1500049
0.150005
0.1500053
0.1500058
0.1500064
0.1500073
0.1500084
0.1500099
0.1500117
0.1500141
0.150017
0.1500206
0.1500251
0.1500306
0.1500373
0.1500454
0.1500553
0.150067
0.150081
0.1500975
0.1501169
0.1501395
0.1501656
0.1501954
0.1502292
0.150267
0.1503087
0.1500069
0.1500069
0.1500071
0.1500073
0.1500077
0.1500083
0.1500091
0.1500102
0.1500117
0.1500136
0.150016
0.150019
0.1500228
0.1500274
0.1500331
0.15004
0.1500484
0.1500584
0.1500704
0.1500847
0.1501016
0.1501215
0.1501447
0.1501717
0.1502029
0.1502387
0.1502796
0.150326
0.1503782
0.1504365
0.1500069
0.1500069
0.1500071
0.1500073
0.1500077
0.1500083
0.1500091
0.1500102
0.1500117
0.1500136
0.150016
0.1500191
0.1500228
0.1500275
0.1500332
0.1500401
0.1500484
0.1500585
0.1500705
0.1500848
0.1501017
0.1501216
0.1501449
0.1501719
0.1502031
0.150239
0.15028
0.1503264
0.1503787
0.1504371
0.1500048
0.1500048
0.1500048
0.1500049
0.150005
0.1500053
0.1500058
0.1500064
0.1500073
0.1500084
0.1500099
0.1500117
0.1500141
0.150017
0.1500206
0.1500251
0.1500306
0.1500373
0.1500455