/*--------------------------------*- C++ -*----------------------------------*\
| =========                 |                                                 |
| \\      /  F ield         | OpenFOAM: The Open Source CFD Toolbox           |
|  \\    /   O peration     | Version:  4.0                                   |
|   \\  /    A nd           | Web:      www.OpenFOAM.org                      |
|    \\/     M anipulation  |                                                 |
\*---------------------------------------------------------------------------*/
FoamFile
{
    version     2.0;
    format      ascii;
    class       volScalarField;
    location    "60/air";
    object      YO2air;
}
// * * * * * * * * * * * * * * * * * * * * * * * * * * * * * * * * * * * * * //

dimensions      [0 0 0 0 0 0 0];

internalField   nonuniform List<scalar> 
39776
(
0.2
0.2
0.2
0.2
0.2
0.2
0.2
0.2
0.2
0.2
0.1999999
0.1999999
0.1999999
0.1999999
0.1999998
0.1999997
0.1999996
0.1999995
0.1999992
0.1999989
0.1999984
0.1999976
0.1999965
0.1999949
0.1999925
0.1999888
0.1999833
0.199975
0.1999623
0.1999428
0.2
0.2
0.2
0.2
0.2
0.2
0.2
0.2
0.2
0.2
0.2
0.2
0.1999999
0.1999999
0.1999999
0.1999998
0.1999998
0.1999996
0.1999995
0.1999993
0.1999989
0.1999985
0.1999978
0.1999967
0.1999952
0.199993
0.1999896
0.1999845
0.199977
0.1999655
0.2
0.2
0.2
0.2
0.2
0.2
0.2
0.2
0.2
0.2
0.2
0.2
0.1999999
0.1999999
0.1999999
0.1999998
0.1999997
0.1999996
0.1999995
0.1999992
0.1999989
0.1999984
0.1999976
0.1999966
0.199995
0.1999926
0.199989
0.1999837
0.1999757
0.1999637
0.2
0.2
0.2
0.2
0.2
0.2
0.2
0.2
0.2
0.2
0.1999999
0.1999999
0.1999999
0.1999999
0.1999998
0.1999997
0.1999996
0.1999995
0.1999992
0.1999989
0.1999984
0.1999977
0.1999966
0.199995
0.1999926
0.1999891
0.1999837
0.1999757
0.1999635
0.1999448
0.2
0.2
0.2
0.2
0.2
0.2
0.2
0.2
0.2
0.2
0.2
0.1999999
0.1999999
0.1999999
0.1999998
0.1999997
0.1999996
0.1999995
0.1999992
0.1999989
0.1999984
0.1999977
0.1999966
0.1999951
0.1999928
0.1999893
0.1999841
0.1999762
0.1999643
0.199946
0.2
0.2
0.2
0.2
0.2
0.2
0.2
0.2
0.2
0.2
0.2
0.2
0.1999999
0.1999999
0.1999999
0.1999998
0.1999997
0.1999996
0.1999995
0.1999992
0.1999989
0.1999984
0.1999976
0.1999966
0.1999949
0.1999926
0.199989
0.1999837
0.1999757
0.1999637
0.2
0.2
0.2
0.2
0.2
0.2
0.2
0.2
0.2
0.2
0.2
0.2
0.1999999
0.1999999
0.1999999
0.1999998
0.1999997
0.1999996
0.1999995
0.1999992
0.1999989
0.1999984
0.1999976
0.1999965
0.1999949
0.1999925
0.1999889
0.1999835
0.1999755
0.1999634
0.2
0.2
0.2
0.2
0.2
0.2
0.2
0.2
0.2
0.2
0.1999999
0.1999999
0.1999999
0.1999999
0.1999998
0.1999997
0.1999996
0.1999995
0.1999992
0.1999989
0.1999984
0.1999977
0.1999966
0.199995
0.1999927
0.1999891
0.1999839
0.1999759
0.1999638
0.1999453
0.2
0.2
0.2
0.2
0.2
0.2
0.2
0.2
0.2
0.2
0.1999999
0.1999999
0.1999999
0.1999999
0.1999998
0.1999997
0.1999996
0.1999995
0.1999992
0.1999989
0.1999984
0.1999977
0.1999966
0.199995
0.1999927
0.1999892
0.199984
0.1999761
0.199964
0.1999457
0.2
0.2
0.2
0.2
0.2
0.2
0.2
0.2
0.2
0.2
0.2
0.2
0.1999999
0.1999999
0.1999999
0.1999998
0.1999997
0.1999996
0.1999995
0.1999992
0.1999989
0.1999984
0.1999976
0.1999965
0.1999949
0.1999925
0.1999889
0.1999836
0.1999756
0.1999635
0.2
0.2
0.2
0.2
0.2
0.2
0.2
0.2
0.2
0.2
0.2
0.2
0.1999999
0.1999999
0.1999999
0.1999998
0.1999997
0.1999996
0.1999995
0.1999992
0.1999989
0.1999984
0.1999976
0.1999965
0.1999949
0.1999925
0.1999889
0.1999836
0.1999756
0.1999635
0.2
0.2
0.2
0.2
0.2
0.2
0.2
0.2
0.2
0.2
0.1999999
0.1999999
0.1999999
0.1999999
0.1999998
0.1999997
0.1999996
0.1999995
0.1999992
0.1999989
0.1999984
0.1999977
0.1999966
0.199995
0.1999927
0.1999892
0.1999839
0.199976
0.199964
0.1999455
0.2
0.2
0.2
0.2
0.2
0.2
0.2
0.2
0.2
0.2
0.1999999
0.1999999
0.1999999
0.1999999
0.1999998
0.1999997
0.1999996
0.1999995
0.1999992
0.1999989
0.1999984
0.1999977
0.1999966
0.199995
0.1999927
0.1999892
0.1999839
0.199976
0.199964
0.1999455
0.2
0.2
0.2
0.2
0.2
0.2
0.2
0.2
0.2
0.2
0.2
0.2
0.1999999
0.1999999
0.1999999
0.1999998
0.1999997
0.1999996
0.1999995
0.1999992
0.1999989
0.1999984
0.1999976
0.1999965
0.1999949
0.1999925
0.1999889
0.1999836
0.1999755
0.1999634
0.2
0.2
0.2
0.2
0.2
0.2
0.2
0.2
0.2
0.2
0.2
0.2
0.1999999
0.1999999
0.1999999
0.1999998
0.1999997
0.1999996
0.1999995
0.1999992
0.1999989
0.1999984
0.1999976
0.1999965
0.1999949
0.1999925
0.1999889
0.1999836
0.1999755
0.1999634
0.2
0.2
0.2
0.2
0.2
0.2
0.2
0.2
0.2
0.2
0.1999999
0.1999999
0.1999999
0.1999999
0.1999998
0.1999997
0.1999996
0.1999995
0.1999992
0.1999989
0.1999984
0.1999977
0.1999966
0.199995
0.1999927
0.1999892
0.1999839
0.199976
0.199964
0.1999455
0.2
0.2
0.2
0.2
0.2
0.2
0.2
0.2
0.2
0.2
0.1999999
0.1999999
0.1999999
0.1999999
0.1999998
0.1999997
0.1999996
0.1999995
0.1999992
0.1999989
0.1999984
0.1999977
0.1999966
0.199995
0.1999927
0.1999892
0.1999839
0.199976
0.1999639
0.1999455
0.2
0.2
0.2
0.2
0.2
0.2
0.2
0.2
0.2
0.2
0.2
0.2
0.1999999
0.1999999
0.1999999
0.1999998
0.1999997
0.1999996
0.1999995
0.1999992
0.1999989
0.1999984
0.1999976
0.1999965
0.1999949
0.1999925
0.1999889
0.1999836
0.1999755
0.1999634
0.2
0.2
0.2
0.2
0.2
0.2
0.2
0.2
0.2
0.2
0.2
0.2
0.1999999
0.1999999
0.1999999
0.1999998
0.1999997
0.1999996
0.1999995
0.1999992
0.1999989
0.1999984
0.1999976
0.1999965
0.1999949
0.1999925
0.1999889
0.1999836
0.1999756
0.1999635
0.2
0.2
0.2
0.2
0.2
0.2
0.2
0.2
0.2
0.2
0.1999999
0.1999999
0.1999999
0.1999999
0.1999998
0.1999997
0.1999996
0.1999995
0.1999992
0.1999989
0.1999984
0.1999977
0.1999966
0.199995
0.1999927
0.1999892
0.199984
0.199976
0.199964
0.1999456
0.2
0.2
0.2
0.2
0.2
0.2
0.2
0.2
0.2
0.2
0.1999999
0.1999999
0.1999999
0.1999999
0.1999998
0.1999997
0.1999996
0.1999995
0.1999992
0.1999989
0.1999984
0.1999977
0.1999966
0.199995
0.1999926
0.1999891
0.1999838
0.1999759
0.1999638
0.1999452
0.2
0.2
0.2
0.2
0.2
0.2
0.2
0.2
0.2
0.2
0.2
0.2
0.1999999
0.1999999
0.1999999
0.1999998
0.1999997
0.1999996
0.1999995
0.1999992
0.1999989
0.1999984
0.1999976
0.1999965
0.1999949
0.1999925
0.1999889
0.1999835
0.1999755
0.1999634
0.2
0.2
0.2
0.2
0.2
0.2
0.2
0.2
0.2
0.2
0.2
0.2
0.1999999
0.1999999
0.1999999
0.1999998
0.1999997
0.1999996
0.1999995
0.1999992
0.1999989
0.1999984
0.1999976
0.1999966
0.1999949
0.1999926
0.199989
0.1999837
0.1999757
0.1999637
0.2
0.2
0.2
0.2
0.2
0.2
0.2
0.2
0.2
0.2
0.2
0.1999999
0.1999999
0.1999999
0.1999998
0.1999997
0.1999996
0.1999995
0.1999992
0.1999989
0.1999984
0.1999977
0.1999967
0.1999951
0.1999928
0.1999893
0.1999841
0.1999763
0.1999643
0.1999461
0.2
0.2
0.2
0.2
0.2
0.2
0.2
0.2
0.2
0.2
0.1999999
0.1999999
0.1999999
0.1999999
0.1999998
0.1999997
0.1999996
0.1999995
0.1999992
0.1999989
0.1999984
0.1999977
0.1999966
0.199995
0.1999926
0.1999891
0.1999838
0.1999757
0.1999635
0.1999449
0.2
0.2
0.2
0.2
0.2
0.2
0.2
0.2
0.2
0.2
0.2
0.2
0.1999999
0.1999999
0.1999999
0.1999998
0.1999997
0.1999996
0.1999995
0.1999992
0.1999989
0.1999984
0.1999977
0.1999966
0.199995
0.1999926
0.199989
0.1999838
0.1999758
0.1999638
0.2
0.2
0.2
0.2
0.2
0.2
0.2
0.2
0.2
0.2
0.2
0.2
0.1999999
0.1999999
0.1999999
0.1999998
0.1999998
0.1999996
0.1999995
0.1999993
0.1999989
0.1999985
0.1999978
0.1999968
0.1999952
0.199993
0.1999896
0.1999846
0.1999771
0.1999656
0.2
0.2
0.2
0.2
0.2
0.2
0.2
0.2
0.2
0.2
0.1999999
0.1999999
0.1999999
0.1999999
0.1999998
0.1999997
0.1999996
0.1999995
0.1999992
0.1999989
0.1999984
0.1999976
0.1999965
0.1999949
0.1999925
0.1999889
0.1999834
0.1999751
0.1999625
0.1999431
0.1999998
0.1999998
0.1999998
0.1999997
0.1999997
0.1999997
0.1999996
0.1999995
0.1999994
0.1999992
0.199999
0.1999987
0.1999983
0.1999977
0.1999969
0.1999959
0.1999945
0.1999927
0.1999903
0.1999871
0.1999829
0.1999774
0.1999703
0.199961
0.1999491
0.1999337
0.1999141
0.1998891
0.1998575
0.1998179
0.1999998
0.1999998
0.1999998
0.1999998
0.1999998
0.1999998
0.1999998
0.1999997
0.1999996
0.1999995
0.1999994
0.1999992
0.199999
0.1999986
0.1999982
0.1999976
0.1999967
0.1999956
0.1999942
0.1999922
0.1999897
0.1999863
0.1999818
0.1999761
0.1999685
0.1999588
0.1999464
0.1999305
0.1999104
0.1998852
0.1999998
0.1999998
0.1999998
0.1999998
0.1999998
0.1999998
0.1999998
0.1999997
0.1999996
0.1999995
0.1999994
0.1999992
0.1999989
0.1999986
0.1999981
0.1999975
0.1999966
0.1999955
0.1999939
0.1999919
0.1999892
0.1999857
0.1999811
0.1999751
0.1999673
0.1999572
0.1999443
0.1999278
0.1999071
0.1998813
0.1999998
0.1999998
0.1999998
0.1999997
0.1999997
0.1999997
0.1999996
0.1999995
0.1999994
0.1999992
0.199999
0.1999987
0.1999983
0.1999977
0.1999969
0.1999959
0.1999945
0.1999927
0.1999903
0.1999872
0.1999831
0.1999777
0.1999706
0.1999616
0.1999499
0.1999349
0.1999158
0.1998915
0.199861
0.1998228
0.1999998
0.1999998
0.1999998
0.1999998
0.1999997
0.1999997
0.1999996
0.1999995
0.1999994
0.1999993
0.199999
0.1999987
0.1999983
0.1999978
0.199997
0.199996
0.1999947
0.1999929
0.1999906
0.1999875
0.1999835
0.1999783
0.1999714
0.1999626
0.1999513
0.1999367
0.1999181
0.1998944
0.1998646
0.1998274
0.1999998
0.1999998
0.1999998
0.1999998
0.1999998
0.1999998
0.1999998
0.1999997
0.1999996
0.1999995
0.1999994
0.1999992
0.199999
0.1999986
0.1999981
0.1999975
0.1999967
0.1999956
0.1999941
0.1999921
0.1999894
0.199986
0.1999814
0.1999755
0.1999678
0.1999578
0.1999451
0.1999288
0.1999083
0.1998827
0.1999998
0.1999998
0.1999998
0.1999998
0.1999998
0.1999998
0.1999998
0.1999997
0.1999996
0.1999995
0.1999994
0.1999992
0.199999
0.1999986
0.1999981
0.1999975
0.1999966
0.1999955
0.199994
0.199992
0.1999893
0.1999858
0.1999812
0.1999753
0.1999675
0.1999575
0.1999446
0.1999282
0.1999076
0.1998819
0.1999998
0.1999998
0.1999998
0.1999997
0.1999997
0.1999997
0.1999996
0.1999995
0.1999994
0.1999992
0.199999
0.1999987
0.1999983
0.1999977
0.199997
0.199996
0.1999946
0.1999928
0.1999905
0.1999874
0.1999833
0.199978
0.199971
0.1999621
0.1999506
0.1999358
0.1999169
0.199893
0.1998628
0.1998251
0.1999998
0.1999998
0.1999998
0.1999997
0.1999997
0.1999997
0.1999996
0.1999995
0.1999994
0.1999993
0.199999
0.1999987
0.1999983
0.1999977
0.199997
0.199996
0.1999946
0.1999929
0.1999905
0.1999874
0.1999834
0.1999781
0.1999712
0.1999623
0.1999508
0.1999361
0.1999174
0.1998936
0.1998635
0.1998261
0.1999998
0.1999998
0.1999998
0.1999998
0.1999998
0.1999998
0.1999998
0.1999997
0.1999996
0.1999995
0.1999994
0.1999992
0.199999
0.1999986
0.1999981
0.1999975
0.1999967
0.1999955
0.199994
0.199992
0.1999894
0.1999859
0.1999813
0.1999753
0.1999676
0.1999576
0.1999447
0.1999284
0.1999078
0.1998822
0.1999998
0.1999998
0.1999998
0.1999998
0.1999998
0.1999998
0.1999998
0.1999997
0.1999996
0.1999995
0.1999994
0.1999992
0.1999989
0.1999986
0.1999981
0.1999975
0.1999966
0.1999955
0.199994
0.199992
0.1999893
0.1999858
0.1999812
0.1999753
0.1999675
0.1999575
0.1999446
0.1999283
0.1999076
0.1998819
0.1999998
0.1999998
0.1999998
0.1999997
0.1999997
0.1999997
0.1999996
0.1999995
0.1999994
0.1999992
0.199999
0.1999987
0.1999983
0.1999977
0.199997
0.199996
0.1999946
0.1999928
0.1999905
0.1999874
0.1999833
0.199978
0.1999711
0.1999622
0.1999507
0.1999359
0.1999171
0.1998932
0.1998631
0.1998255
0.1999998
0.1999998
0.1999998
0.1999997
0.1999997
0.1999997
0.1999996
0.1999995
0.1999994
0.1999992
0.199999
0.1999987
0.1999983
0.1999977
0.199997
0.199996
0.1999946
0.1999928
0.1999905
0.1999874
0.1999833
0.199978
0.1999711
0.1999622
0.1999507
0.199936
0.1999172
0.1998933
0.1998632
0.1998256
0.1999998
0.1999998
0.1999998
0.1999998
0.1999998
0.1999998
0.1999998
0.1999997
0.1999996
0.1999995
0.1999994
0.1999992
0.1999989
0.1999986
0.1999981
0.1999975
0.1999966
0.1999955
0.199994
0.199992
0.1999893
0.1999858
0.1999812
0.1999753
0.1999675
0.1999575
0.1999446
0.1999283
0.1999076
0.1998819
0.1999998
0.1999998
0.1999998
0.1999998
0.1999998
0.1999998
0.1999998
0.1999997
0.1999996
0.1999995
0.1999994
0.1999992
0.1999989
0.1999986
0.1999981
0.1999975
0.1999966
0.1999955
0.199994
0.199992
0.1999893
0.1999858
0.1999812
0.1999753
0.1999675
0.1999575
0.1999446
0.1999283
0.1999076
0.1998819
0.1999998
0.1999998
0.1999998
0.1999997
0.1999997
0.1999997
0.1999996
0.1999995
0.1999994
0.1999992
0.199999
0.1999987
0.1999983
0.1999977
0.199997
0.199996
0.1999946
0.1999928
0.1999905
0.1999874
0.1999833
0.199978
0.1999711
0.1999622
0.1999507
0.199936
0.1999172
0.1998933
0.1998632
0.1998256
0.1999998
0.1999998
0.1999998
0.1999997
0.1999997
0.1999997
0.1999996
0.1999995
0.1999994
0.1999992
0.199999
0.1999987
0.1999983
0.1999977
0.199997
0.199996
0.1999946
0.1999928
0.1999905
0.1999874
0.1999833
0.199978
0.1999711
0.1999622
0.1999507
0.1999359
0.1999171
0.1998933
0.1998631
0.1998255
0.1999998
0.1999998
0.1999998
0.1999998
0.1999998
0.1999998
0.1999998
0.1999997
0.1999996
0.1999995
0.1999994
0.1999992
0.1999989
0.1999986
0.1999981
0.1999975
0.1999966
0.1999955
0.199994
0.199992
0.1999893
0.1999858
0.1999812
0.1999753
0.1999675
0.1999575
0.1999446
0.1999283
0.1999076
0.199882
0.1999998
0.1999998
0.1999998
0.1999998
0.1999998
0.1999998
0.1999998
0.1999997
0.1999996
0.1999995
0.1999994
0.1999992
0.199999
0.1999986
0.1999981
0.1999975
0.1999967
0.1999955
0.199994
0.199992
0.1999893
0.1999859
0.1999813
0.1999753
0.1999676
0.1999576
0.1999447
0.1999284
0.1999078
0.1998821
0.1999998
0.1999998
0.1999998
0.1999997
0.1999997
0.1999997
0.1999996
0.1999995
0.1999994
0.1999992
0.199999
0.1999987
0.1999983
0.1999977
0.199997
0.199996
0.1999946
0.1999929
0.1999905
0.1999874
0.1999834
0.1999781
0.1999712
0.1999623
0.1999508
0.1999361
0.1999174
0.1998935
0.1998635
0.199826
0.1999998
0.1999998
0.1999998
0.1999997
0.1999997
0.1999997
0.1999996
0.1999995
0.1999994
0.1999992
0.199999
0.1999987
0.1999983
0.1999977
0.199997
0.199996
0.1999946
0.1999928
0.1999905
0.1999874
0.1999833
0.1999779
0.199971
0.1999621
0.1999505
0.1999357
0.1999169
0.1998929
0.1998627
0.199825
0.1999998
0.1999998
0.1999998
0.1999998
0.1999998
0.1999998
0.1999998
0.1999997
0.1999996
0.1999995
0.1999994
0.1999992
0.1999989
0.1999986
0.1999981
0.1999975
0.1999966
0.1999955
0.199994
0.199992
0.1999893
0.1999858
0.1999812
0.1999752
0.1999675
0.1999574
0.1999445
0.1999282
0.1999075
0.1998818
0.1999998
0.1999998
0.1999998
0.1999998
0.1999998
0.1999998
0.1999998
0.1999997
0.1999996
0.1999995
0.1999994
0.1999992
0.199999
0.1999986
0.1999982
0.1999975
0.1999967
0.1999956
0.1999941
0.1999921
0.1999894
0.199986
0.1999814
0.1999755
0.1999678
0.1999578
0.1999451
0.1999288
0.1999083
0.1998828
0.1999998
0.1999998
0.1999998
0.1999998
0.1999997
0.1999997
0.1999996
0.1999995
0.1999994
0.1999993
0.199999
0.1999987
0.1999983
0.1999978
0.199997
0.199996
0.1999947
0.1999929
0.1999906
0.1999876
0.1999835
0.1999783
0.1999715
0.1999626
0.1999513
0.1999367
0.1999181
0.1998945
0.1998647
0.1998275
0.1999998
0.1999998
0.1999998
0.1999997
0.1999997
0.1999997
0.1999996
0.1999995
0.1999994
0.1999992
0.199999
0.1999987
0.1999983
0.1999977
0.1999969
0.1999959
0.1999945
0.1999927
0.1999903
0.1999872
0.1999831
0.1999777
0.1999707
0.1999616
0.1999499
0.199935
0.1999159
0.1998916
0.1998611
0.1998229
0.1999998
0.1999998
0.1999998
0.1999998
0.1999998
0.1999998
0.1999998
0.1999997
0.1999996
0.1999995
0.1999994
0.1999992
0.1999989
0.1999986
0.1999981
0.1999975
0.1999966
0.1999955
0.199994
0.1999919
0.1999893
0.1999857
0.1999811
0.1999751
0.1999673
0.1999573
0.1999443
0.1999279
0.1999072
0.1998815
0.1999998
0.1999998
0.1999998
0.1999998
0.1999998
0.1999998
0.1999998
0.1999997
0.1999996
0.1999995
0.1999994
0.1999992
0.199999
0.1999986
0.1999982
0.1999976
0.1999967
0.1999956
0.1999942
0.1999922
0.1999897
0.1999863
0.1999819
0.1999761
0.1999686
0.199959
0.1999465
0.1999307
0.1999106
0.1998855
0.1999998
0.1999998
0.1999998
0.1999997
0.1999997
0.1999997
0.1999996
0.1999995
0.1999994
0.1999992
0.199999
0.1999987
0.1999983
0.1999977
0.1999969
0.1999959
0.1999945
0.1999927
0.1999903
0.1999871
0.1999829
0.1999775
0.1999703
0.1999611
0.1999492
0.1999339
0.1999144
0.1998894
0.1998579
0.1998185
0.1999987
0.1999987
0.1999987
0.1999986
0.1999985
0.1999984
0.1999981
0.1999978
0.1999974
0.1999968
0.199996
0.1999949
0.1999936
0.1999918
0.1999895
0.1999865
0.1999828
0.199978
0.1999719
0.1999642
0.1999546
0.1999426
0.1999278
0.1999096
0.1998874
0.1998605
0.199828
0.1997892
0.1997431
0.1996889
0.1999992
0.1999992
0.1999992
0.1999991
0.1999991
0.199999
0.1999989
0.1999987
0.1999985
0.1999982
0.1999977
0.1999971
0.1999964
0.1999954
0.1999941
0.1999924
0.1999902
0.1999873
0.1999837
0.1999791
0.1999733
0.1999659
0.1999567
0.1999453
0.1999311
0.1999138
0.1998927
0.1998675
0.1998375
0.1998025
0.1999992
0.1999992
0.1999992
0.1999991
0.1999991
0.199999
0.1999989
0.1999987
0.1999985
0.1999981
0.1999977
0.1999971
0.1999963
0.1999953
0.1999939
0.1999922
0.1999899
0.199987
0.1999833
0.1999785
0.1999725
0.199965
0.1999555
0.1999437
0.1999292
0.1999114
0.1998899
0.1998642
0.1998338
0.1997985
0.1999988
0.1999988
0.1999987
0.1999987
0.1999986
0.1999984
0.1999982
0.1999979
0.1999974
0.1999968
0.1999961
0.199995
0.1999937
0.199992
0.1999898
0.1999869
0.1999832
0.1999786
0.1999727
0.1999652
0.1999559
0.1999444
0.1999302
0.1999127
0.1998914
0.1998657
0.1998348
0.1997981
0.1997547
0.1997042
0.1999988
0.1999988
0.1999988
0.1999987
0.1999986
0.1999985
0.1999982
0.1999979
0.1999975
0.1999969
0.1999962
0.1999952
0.1999939
0.1999922
0.1999901
0.1999873
0.1999837
0.1999792
0.1999735
0.1999663
0.1999573
0.1999461
0.1999323
0.1999153
0.1998947
0.1998697
0.1998397
0.199804
0.1997618
0.1997125
0.1999992
0.1999992
0.1999992
0.1999992
0.1999991
0.199999
0.1999989
0.1999988
0.1999985
0.1999982
0.1999978
0.1999972
0.1999964
0.1999954
0.1999941
0.1999924
0.1999902
0.1999874
0.1999837
0.1999791
0.1999733
0.1999659
0.1999566
0.1999451
0.1999309
0.1999135
0.1998924
0.1998672
0.1998372
0.1998023
0.1999992
0.1999992
0.1999992
0.1999992
0.1999991
0.199999
0.1999989
0.1999987
0.1999985
0.1999982
0.1999977
0.1999971
0.1999964
0.1999954
0.199994
0.1999923
0.1999901
0.1999872
0.1999836
0.1999789
0.199973
0.1999655
0.1999561
0.1999445
0.1999302
0.1999126
0.1998914
0.1998659
0.1998358
0.1998007
0.1999988
0.1999988
0.1999988
0.1999987
0.1999986
0.1999984
0.1999982
0.1999979
0.1999975
0.1999969
0.1999961
0.1999951
0.1999938
0.1999921
0.1999899
0.1999871
0.1999835
0.1999789
0.1999731
0.1999658
0.1999567
0.1999453
0.1999313
0.1999141
0.1998932
0.1998678
0.1998374
0.1998012
0.1997585
0.1997086
0.1999988
0.1999988
0.1999988
0.1999987
0.1999986
0.1999985
0.1999982
0.1999979
0.1999975
0.1999969
0.1999961
0.1999951
0.1999938
0.1999922
0.19999
0.1999872
0.1999836
0.199979
0.1999732
0.199966
0.1999569
0.1999456
0.1999317
0.1999146
0.1998937
0.1998686
0.1998383
0.1998023
0.1997598
0.1997102
0.1999992
0.1999992
0.1999992
0.1999992
0.1999991
0.199999
0.1999989
0.1999987
0.1999985
0.1999982
0.1999977
0.1999971
0.1999964
0.1999954
0.199994
0.1999923
0.1999901
0.1999873
0.1999836
0.1999789
0.199973
0.1999656
0.1999563
0.1999447
0.1999304
0.1999129
0.1998917
0.1998663
0.1998363
0.1998012
0.1999992
0.1999992
0.1999992
0.1999992
0.1999991
0.199999
0.1999989
0.1999987
0.1999985
0.1999982
0.1999977
0.1999971
0.1999964
0.1999954
0.199994
0.1999923
0.1999901
0.1999872
0.1999836
0.1999789
0.199973
0.1999655
0.1999562
0.1999445
0.1999302
0.1999127
0.1998914
0.199866
0.1998359
0.1998009
0.1999988
0.1999988
0.1999988
0.1999987
0.1999986
0.1999984
0.1999982
0.1999979
0.1999975
0.1999969
0.1999961
0.1999951
0.1999938
0.1999921
0.1999899
0.1999871
0.1999835
0.1999789
0.1999732
0.1999659
0.1999567
0.1999454
0.1999314
0.1999143
0.1998934
0.1998681
0.1998378
0.1998017
0.1997591
0.1997093
0.1999988
0.1999988
0.1999988
0.1999987
0.1999986
0.1999984
0.1999982
0.1999979
0.1999975
0.1999969
0.1999961
0.1999951
0.1999938
0.1999921
0.1999899
0.1999871
0.1999835
0.199979
0.1999732
0.1999659
0.1999568
0.1999455
0.1999315
0.1999144
0.1998935
0.1998682
0.1998379
0.1998019
0.1997593
0.1997095
0.1999992
0.1999992
0.1999992
0.1999992
0.1999991
0.199999
0.1999989
0.1999987
0.1999985
0.1999982
0.1999977
0.1999971
0.1999964
0.1999954
0.199994
0.1999923
0.1999901
0.1999872
0.1999836
0.1999789
0.199973
0.1999655
0.1999562
0.1999446
0.1999302
0.1999127
0.1998915
0.1998661
0.199836
0.199801
0.1999992
0.1999992
0.1999992
0.1999992
0.1999991
0.199999
0.1999989
0.1999987
0.1999985
0.1999982
0.1999977
0.1999971
0.1999964
0.1999954
0.199994
0.1999923
0.1999901
0.1999872
0.1999836
0.1999789
0.199973
0.1999655
0.1999562
0.1999446
0.1999302
0.1999127
0.1998915
0.1998661
0.199836
0.199801
0.1999988
0.1999988
0.1999988
0.1999987
0.1999986
0.1999984
0.1999982
0.1999979
0.1999975
0.1999969
0.1999961
0.1999951
0.1999938
0.1999921
0.1999899
0.1999871
0.1999835
0.199979
0.1999732
0.1999659
0.1999568
0.1999455
0.1999315
0.1999144
0.1998935
0.1998683
0.199838
0.1998019
0.1997593
0.1997095
0.1999988
0.1999988
0.1999988
0.1999987
0.1999986
0.1999984
0.1999982
0.1999979
0.1999975
0.1999969
0.1999961
0.1999951
0.1999938
0.1999921
0.1999899
0.1999871
0.1999835
0.1999789
0.1999732
0.1999659
0.1999567
0.1999454
0.1999314
0.1999143
0.1998934
0.1998681
0.1998378
0.1998017
0.1997591
0.1997093
0.1999992
0.1999992
0.1999992
0.1999992
0.1999991
0.199999
0.1999989
0.1999987
0.1999985
0.1999982
0.1999977
0.1999971
0.1999964
0.1999954
0.199994
0.1999923
0.1999901
0.1999872
0.1999836
0.1999789
0.199973
0.1999655
0.1999562
0.1999445
0.1999302
0.1999127
0.1998914
0.199866
0.1998359
0.1998009
0.1999992
0.1999992
0.1999992
0.1999992
0.1999991
0.199999
0.1999989
0.1999987
0.1999985
0.1999982
0.1999977
0.1999971
0.1999964
0.1999954
0.199994
0.1999923
0.1999901
0.1999873
0.1999836
0.1999789
0.199973
0.1999656
0.1999563
0.1999447
0.1999304
0.1999129
0.1998917
0.1998663
0.1998362
0.1998012
0.1999988
0.1999988
0.1999988
0.1999987
0.1999986
0.1999984
0.1999982
0.1999979
0.1999975
0.1999969
0.1999961
0.1999951
0.1999938
0.1999922
0.19999
0.1999872
0.1999836
0.199979
0.1999732
0.199966
0.1999569
0.1999456
0.1999316
0.1999145
0.1998937
0.1998685
0.1998383
0.1998023
0.1997598
0.1997101
0.1999988
0.1999988
0.1999988
0.1999987
0.1999986
0.1999984
0.1999982
0.1999979
0.1999975
0.1999969
0.1999961
0.1999951
0.1999938
0.1999921
0.1999899
0.1999871
0.1999835
0.1999789
0.1999731
0.1999658
0.1999566
0.1999453
0.1999312
0.1999141
0.1998931
0.1998678
0.1998373
0.1998011
0.1997584
0.1997084
0.1999992
0.1999992
0.1999992
0.1999992
0.1999991
0.199999
0.1999989
0.1999987
0.1999985
0.1999982
0.1999977
0.1999971
0.1999964
0.1999954
0.199994
0.1999923
0.1999901
0.1999872
0.1999836
0.1999789
0.1999729
0.1999655
0.1999561
0.1999445
0.1999301
0.1999126
0.1998913
0.1998658
0.1998357
0.1998006
0.1999992
0.1999992
0.1999992
0.1999992
0.1999991
0.1999991
0.1999989
0.1999988
0.1999985
0.1999982
0.1999978
0.1999972
0.1999964
0.1999954
0.1999941
0.1999924
0.1999902
0.1999874
0.1999837
0.1999791
0.1999733
0.1999659
0.1999566
0.1999451
0.1999309
0.1999135
0.1998924
0.1998672
0.1998373
0.1998024
0.1999988
0.1999988
0.1999988
0.1999987
0.1999986
0.1999985
0.1999982
0.1999979
0.1999975
0.1999969
0.1999962
0.1999952
0.1999939
0.1999922
0.1999901
0.1999873
0.1999837
0.1999792
0.1999735
0.1999663
0.1999573
0.1999461
0.1999323
0.1999154
0.1998947
0.1998698
0.1998398
0.1998041
0.1997619
0.1997126
0.1999988
0.1999988
0.1999987
0.1999987
0.1999986
0.1999984
0.1999982
0.1999979
0.1999974
0.1999968
0.1999961
0.199995
0.1999937
0.199992
0.1999898
0.1999869
0.1999832
0.1999786
0.1999727
0.1999653
0.199956
0.1999444
0.1999302
0.1999127
0.1998915
0.1998658
0.1998349
0.1997982
0.1997549
0.1997043
0.1999992
0.1999992
0.1999992
0.1999992
0.1999991
0.199999
0.1999989
0.1999987
0.1999985
0.1999981
0.1999977
0.1999971
0.1999963
0.1999953
0.1999939
0.1999922
0.1999899
0.199987
0.1999833
0.1999786
0.1999726
0.199965
0.1999555
0.1999438
0.1999292
0.1999115
0.19989
0.1998644
0.199834
0.1997987
0.1999992
0.1999992
0.1999992
0.1999992
0.1999991
0.199999
0.1999989
0.1999987
0.1999985
0.1999982
0.1999977
0.1999971
0.1999964
0.1999954
0.1999941
0.1999924
0.1999902
0.1999874
0.1999838
0.1999792
0.1999733
0.199966
0.1999568
0.1999454
0.1999312
0.1999139
0.1998929
0.1998677
0.1998378
0.1998028
0.1999987
0.1999987
0.1999987
0.1999986
0.1999985
0.1999984
0.1999981
0.1999978
0.1999974
0.1999968
0.199996
0.1999949
0.1999936
0.1999918
0.1999895
0.1999866
0.1999828
0.199978
0.1999719
0.1999643
0.1999547
0.1999428
0.199928
0.1999099
0.1998877
0.1998608
0.1998284
0.1997896
0.1997436
0.1996895
0.1999959
0.1999958
0.1999957
0.1999956
0.1999953
0.1999948
0.1999942
0.1999934
0.1999922
0.1999907
0.1999888
0.1999864
0.1999833
0.1999794
0.1999746
0.1999686
0.1999612
0.1999521
0.199941
0.1999275
0.1999113
0.1998917
0.1998684
0.1998408
0.1998082
0.19977
0.1997255
0.1996741
0.199615
0.1995477
0.1999974
0.1999974
0.1999974
0.1999973
0.1999972
0.199997
0.1999967
0.1999963
0.1999957
0.1999949
0.1999939
0.1999926
0.1999909
0.1999887
0.199986
0.1999825
0.1999782
0.1999728
0.1999662
0.1999579
0.1999478
0.1999355
0.1999207
0.1999029
0.1998817
0.1998567
0.1998276
0.1997939
0.1997555
0.1997124
0.1999974
0.1999974
0.1999974
0.1999973
0.1999972
0.199997
0.1999967
0.1999963
0.1999957
0.1999949
0.1999939
0.1999926
0.1999909
0.1999887
0.1999859
0.1999824
0.199978
0.1999726
0.1999658
0.1999575
0.1999473
0.1999349
0.1999199
0.199902
0.1998807
0.1998557
0.1998266
0.199793
0.1997549
0.1997121
0.199996
0.199996
0.1999959
0.1999957
0.1999955
0.199995
0.1999944
0.1999936
0.1999925
0.1999911
0.1999893
0.199987
0.1999841
0.1999804
0.1999758
0.1999701
0.1999631
0.1999545
0.199944
0.1999313
0.199916
0.1998976
0.1998758
0.1998501
0.1998199
0.1997846
0.1997438
0.1996969
0.1996434
0.199583
0.1999961
0.1999961
0.199996
0.1999959
0.1999956
0.1999952
0.1999946
0.1999939
0.1999928
0.1999914
0.1999897
0.1999874
0.1999846
0.199981
0.1999766
0.1999711
0.1999643
0.199956
0.1999458
0.1999335
0.1999187
0.199901
0.1998799
0.199855
0.1998257
0.1997916
0.199752
0.1997065
0.1996547
0.1995959
0.1999975
0.1999975
0.1999975
0.1999974
0.1999973
0.1999971
0.1999968
0.1999964
0.1999959
0.1999951
0.1999941
0.1999928
0.1999912
0.1999891
0.1999864
0.199983
0.1999788
0.1999735
0.199967
0.1999589
0.199949
0.1999369
0.1999223
0.1999049
0.1998841
0.1998597
0.1998312
0.1997983
0.1997608
0.1997187
0.1999975
0.1999975
0.1999975
0.1999974
0.1999973
0.1999971
0.1999968
0.1999964
0.1999958
0.1999951
0.199994
0.1999927
0.1999911
0.1999889
0.1999862
0.1999828
0.1999785
0.1999732
0.1999666
0.1999584
0.1999483
0.1999362
0.1999214
0.1999038
0.1998829
0.1998582
0.1998294
0.1997963
0.1997586
0.1997162
0.1999961
0.1999961
0.199996
0.1999958
0.1999956
0.1999952
0.1999946
0.1999938
0.1999927
0.1999913
0.1999895
0.1999873
0.1999844
0.1999808
0.1999762
0.1999707
0.1999638
0.1999553
0.199945
0.1999325
0.1999175
0.1998995
0.1998781
0.1998528
0.199823
0.1997883
0.1997482
0.199702
0.1996493
0.1995897
0.1999961
0.1999961
0.199996
0.1999959
0.1999956
0.1999952
0.1999946
0.1999938
0.1999927
0.1999914
0.1999896
0.1999873
0.1999844
0.1999809
0.1999764
0.1999708
0.1999639
0.1999555
0.1999453
0.1999329
0.1999179
0.1999
0.1998788
0.1998536
0.199824
0.1997895
0.1997496
0.1997036
0.1996512
0.199592
0.1999975
0.1999975
0.1999975
0.1999974
0.1999973
0.1999971
0.1999968
0.1999964
0.1999958
0.1999951
0.1999941
0.1999928
0.1999911
0.199989
0.1999863
0.1999829
0.1999786
0.1999733
0.1999666
0.1999585
0.1999485
0.1999363
0.1999217
0.1999041
0.1998832
0.1998586
0.1998299
0.1997968
0.1997592
0.1997169
0.1999975
0.1999975
0.1999975
0.1999974
0.1999973
0.1999971
0.1999968
0.1999964
0.1999958
0.1999951
0.199994
0.1999927
0.1999911
0.1999889
0.1999862
0.1999828
0.1999785
0.1999732
0.1999666
0.1999584
0.1999484
0.1999362
0.1999215
0.1999039
0.1998829
0.1998583
0.1998295
0.1997964
0.1997587
0.1997164
0.1999961
0.1999961
0.199996
0.1999958
0.1999956
0.1999952
0.1999946
0.1999938
0.1999927
0.1999913
0.1999896
0.1999873
0.1999844
0.1999808
0.1999763
0.1999707
0.1999638
0.1999554
0.1999451
0.1999327
0.1999177
0.1998997
0.1998784
0.1998531
0.1998234
0.1997888
0.1997487
0.1997026
0.1996501
0.1995906
0.1999961
0.1999961
0.199996
0.1999958
0.1999956
0.1999952
0.1999946
0.1999938
0.1999927
0.1999913
0.1999896
0.1999873
0.1999844
0.1999808
0.1999763
0.1999707
0.1999639
0.1999555
0.1999452
0.1999328
0.1999178
0.1998998
0.1998785
0.1998533
0.1998237
0.1997891
0.199749
0.199703
0.1996505
0.1995911
0.1999975
0.1999975
0.1999975
0.1999974
0.1999973
0.1999971
0.1999968
0.1999964
0.1999958
0.1999951
0.1999941
0.1999928
0.1999911
0.1999889
0.1999862
0.1999828
0.1999786
0.1999732
0.1999666
0.1999584
0.1999484
0.1999363
0.1999216
0.199904
0.199883
0.1998584
0.1998297
0.1997966
0.1997589
0.1997166
0.1999975
0.1999975
0.1999975
0.1999974
0.1999973
0.1999971
0.1999968
0.1999964
0.1999958
0.1999951
0.1999941
0.1999928
0.1999911
0.1999889
0.1999862
0.1999828
0.1999786
0.1999732
0.1999666
0.1999584
0.1999484
0.1999363
0.1999216
0.199904
0.1998831
0.1998584
0.1998297
0.1997966
0.1997589
0.1997166
0.1999961
0.1999961
0.199996
0.1999958
0.1999956
0.1999952
0.1999946
0.1999938
0.1999927
0.1999913
0.1999896
0.1999873
0.1999844
0.1999808
0.1999763
0.1999707
0.1999639
0.1999555
0.1999452
0.1999328
0.1999178
0.1998998
0.1998785
0.1998533
0.1998237
0.1997891
0.1997491
0.199703
0.1996505
0.1995911
0.1999961
0.1999961
0.199996
0.1999958
0.1999956
0.1999952
0.1999946
0.1999938
0.1999927
0.1999913
0.1999896
0.1999873
0.1999844
0.1999808
0.1999763
0.1999707
0.1999638
0.1999554
0.1999451
0.1999327
0.1999177
0.1998997
0.1998784
0.1998531
0.1998234
0.1997888
0.1997487
0.1997026
0.19965
0.1995905
0.1999975
0.1999975
0.1999975
0.1999974
0.1999973
0.1999971
0.1999968
0.1999964
0.1999958
0.1999951
0.199994
0.1999927
0.1999911
0.1999889
0.1999862
0.1999828
0.1999785
0.1999732
0.1999666
0.1999584
0.1999484
0.1999362
0.1999215
0.1999039
0.1998829
0.1998583
0.1998295
0.1997964
0.1997587
0.1997164
0.1999975
0.1999975
0.1999975
0.1999974
0.1999973
0.1999971
0.1999968
0.1999964
0.1999958
0.1999951
0.1999941
0.1999928
0.1999911
0.199989
0.1999863
0.1999829
0.1999786
0.1999733
0.1999666
0.1999585
0.1999485
0.1999363
0.1999217
0.1999041
0.1998832
0.1998586
0.1998299
0.1997968
0.1997592
0.1997169
0.1999961
0.1999961
0.199996
0.1999959
0.1999956
0.1999952
0.1999946
0.1999938
0.1999927
0.1999914
0.1999896
0.1999873
0.1999844
0.1999808
0.1999764
0.1999708
0.1999639
0.1999555
0.1999453
0.1999329
0.1999179
0.1999
0.1998787
0.1998536
0.199824
0.1997895
0.1997496
0.1997036
0.1996512
0.1995919
0.1999961
0.1999961
0.199996