# vtk DataFile Version 2.0
airOutlet
ASCII
DATASET POLYDATA
POINTS 1085 float
0.0015 0.001 0.022 0.00155 0.001 0.022 0.00155 0.0015 0.022 0.0015 0.0015
0.022 0.00155 0.002 0.022 0.0015 0.002 0.022 0.00155 0.0025 0.022
0.0015 0.0025 0.022 0.00155 0.003 0.022 0.0015 0.003 0.022 0.0015
0.004 0.022 0.00155 0.004 0.022 0.00155 0.0045 0.022 0.0015 0.0045
0.022 0.00155 0.005 0.022 0.0015 0.005 0.022 0.00155 0.0055 0.022
0.0015 0.0055 0.022 0.00155 0.006 0.022 0.0015 0.006 0.022 0.0015
0.007 0.022 0.00155 0.007 0.022 0.00155 0.0075 0.022 0.0015 0.0075
0.022 0.00155 0.008 0.022 0.0015 0.008 0.022 0.00155 0.0085 0.022
0.0015 0.0085 0.022 0.00155 0.009 0.022 0.0015 0.009 0.022 0.0015
0.01 0.022 0.00155 0.01 0.022 0.00155 0.0105 0.022 0.0015 0.0105
0.022 0.00155 0.011 0.022 0.0015 0.011 0.022 0.00155 0.0115 0.022
0.0015 0.0115 0.022 0.00155 0.012 0.022 0.0015 0.012 0.022 0.0015
0.013 0.022 0.00155 0.013 0.022 0.00155 0.0135 0.022 0.0015 0.0135
0.022 0.00155 0.014 0.022 0.0015 0.014 0.022 0.00155 0.0145 0.022
0.0015 0.0145 0.022 0.00155 0.015 0.022 0.0015 0.015 0.022 0.0015
0.016 0.022 0.00155 0.016 0.022 0.00155 0.0165 0.022 0.0015 0.0165
0.022 0.00155 0.017 0.022 0.0015 0.017 0.022 0.00155 0.0175 0.022
0.0015 0.0175 0.022 0.00155 0.018 0.022 0.0015 0.018 0.022 0.0015
0.019 0.022 0.00155 0.019 0.022 0.00155 0.0195 0.022 0.0015 0.0195
0.022 0.00155 0.02 0.022 0.0015 0.02 0.022 0.00155 0.0205 0.022
0.0015 0.0205 0.022 0.00155 0.021 0.022 0.0015 0.021 0.022 0.0016
0.001 0.022 0.0016 0.0015 0.022 0.0016 0.002 0.022 0.0016 0.0025
0.022 0.0016 0.003 0.022 0.0016 0.004 0.022 0.0016 0.0045 0.022
0.0016 0.005 0.022 0.0016 0.0055 0.022 0.0016 0.006 0.022 0.0016
0.007 0.022 0.0016 0.0075 0.022 0.0016 0.008 0.022 0.0016 0.0085
0.022 0.0016 0.009 0.022 0.0016 0.01 0.022 0.0016 0.0105 0.022
0.0016 0.011 0.022 0.0016 0.0115 0.022 0.0016 0.012 0.022 0.0016
0.013 0.022 0.0016 0.0135 0.022 0.0016 0.014 0.022 0.0016 0.0145
0.022 0.0016 0.015 0.022 0.0016 0.016 0.022 0.0016 0.0165 0.022
0.0016 0.017 0.022 0.0016 0.0175 0.022 0.0016 0.018 0.022 0.0016
0.019 0.022 0.0016 0.0195 0.022 0.0016 0.02 0.022 0.0016 0.0205
0.022 0.0016 0.021 0.022 0.00165 0.001 0.022 0.00165 0.0015 0.022
0.00165 0.002 0.022 0.00165 0.0025 0.022 0.00165 0.003 0.022 0.00165
0.004 0.022 0.00165 0.0045 0.022 0.00165 0.005 0.022 0.00165 0.0055
0.022 0.00165 0.006 0.022 0.00165 0.007 0.022 0.00165 0.0075 0.022
0.00165 0.008 0.022 0.00165 0.0085 0.022 0.00165 0.009 0.022 0.00165
0.01 0.022 0.00165 0.0105 0.022 0.00165 0.011 0.022 0.00165 0.0115
0.022 0.00165 0.012 0.022 0.00165 0.013 0.022 0.00165 0.0135 0.022
0.00165 0.014 0.022 0.00165 0.0145 0.022 0.00165 0.015 0.022 0.00165
0.016 0.022 0.00165 0.0165 0.022 0.00165 0.017 0.022 0.00165 0.0175
0.022 0.00165 0.018 0.022 0.00165 0.019 0.022 0.00165 0.0195 0.022
0.00165 0.02 0.022 0.00165 0.0205 0.022 0.00165 0.021 0.022 0.0017
0.001 0.022 0.0017 0.0015 0.022 0.0017 0.002 0.022 0.0017 0.0025
0.022 0.0017 0.003 0.022 0.0017 0.004 0.022 0.0017 0.0045 0.022
0.0017 0.005 0.022 0.0017 0.0055 0.022 0.0017 0.006 0.022 0.0017
0.007 0.022 0.0017 0.0075 0.022 0.0017 0.008 0.022 0.0017 0.0085
0.022 0.0017 0.009 0.022 0.0017 0.01 0.022 0.0017 0.0105 0.022
0.0017 0.011 0.022 0.0017 0.0115 0.022 0.0017 0.012 0.022 0.0017
0.013 0.022 0.0017 0.0135 0.022 0.0017 0.014 0.022 0.0017 0.0145
0.022 0.0017 0.015 0.022 0.0017 0.016 0.022 0.0017 0.0165 0.022
0.0017 0.017 0.022 0.0017 0.0175 0.022 0.0017 0.018 0.022 0.0017
0.019 0.022 0.0017 0.0195 0.022 0.0017 0.02 0.022 0.0017 0.0205
0.022 0.0017 0.021 0.022 0.00175 0.001 0.022 0.00175 0.0015 0.022
0.00175 0.002 0.022 0.00175 0.0025 0.022 0.00175 0.003 0.022 0.00175
0.004 0.022 0.00175 0.0045 0.022 0.00175 0.005 0.022 0.00175 0.0055
0.022 0.00175 0.006 0.022 0.00175 0.007 0.022 0.00175 0.0075 0.022
0.00175 0.008 0.022 0.00175 0.0085 0.022 0.00175 0.009 0.022 0.00175
0.01 0.022 0.00175 0.0105 0.022 0.00175 0.011 0.022 0.00175 0.0115
0.022 0.00175 0.012 0.022 0.00175 0.013 0.022 0.00175 0.0135 0.022
0.00175 0.014 0.022 0.00175 0.0145 0.022 0.00175 0.015 0.022 0.00175
0.016 0.022 0.00175 0.0165 0.022 0.00175 0.017 0.022 0.00175 0.0175
0.022 0.00175 0.018 0.022 0.00175 0.019 0.022 0.00175 0.0195 0.022
0.00175 0.02 0.022 0.00175 0.0205 0.022 0.00175 0.021 0.022 0.0018
0.001 0.022 0.0018 0.0015 0.022 0.0018 0.002 0.022 0.0018 0.0025
0.022 0.0018 0.003 0.022 0.0018 0.004 0.022 0.0018 0.0045 0.022
0.0018 0.005 0.022 0.0018 0.0055 0.022 0.0018 0.006 0.022 0.0018
0.007 0.022 0.0018 0.0075 0.022 0.0018 0.008 0.022 0.0018 0.0085
0.022 0.0018 0.009 0.022 0.0018 0.01 0.022 0.0018 0.0105 0.022
0.0018 0.011 0.022 0.0018 0.0115 0.022 0.0018 0.012 0.022 0.0018
0.013 0.022 0.0018 0.0135 0.022 0.0018 0.014 0.022 0.0018 0.0145
0.022 0.0018 0.015 0.022 0.0018 0.016 0.022 0.0018 0.0165 0.022
0.0018 0.017 0.022 0.0018 0.0175 0.022 0.0018 0.018 0.022 0.0018
0.019 0.022 0.0018 0.0195 0.022 0.0018 0.02 0.022 0.0018 0.0205
0.022 0.0018 0.021 0.022 0.00185 0.001 0.022 0.00185 0.0015 0.022
0.00185 0.002 0.022 0.00185 0.0025 0.022 0.00185 0.003 0.022 0.00185
0.004 0.022 0.00185 0.0045 0.022 0.00185 0.005 0.022 0.00185 0.0055
0.022 0.00185 0.006 0.022 0.00185 0.007 0.022 0.00185 0.0075 0.022
0.00185 0.008 0.022 0.00185 0.0085 0.022 0.00185 0.009 0.022 0.00185
0.01 0.022 0.00185 0.0105 0.022 0.00185 0.011 0.022 0.00185 0.0115
0.022 0.00185 0.012 0.022 0.00185 0.013 0.022 0.00185 0.0135 0.022
0.00185 0.014 0.022 0.00185 0.0145 0.022 0.00185 0.015 0.022 0.00185
0.016 0.022 0.00185 0.0165 0.022 0.00185 0.017 0.022 0.00185 0.0175
0.022 0.00185 0.018 0.022 0.00185 0.019 0.022 0.00185 0.0195 0.022
0.00185 0.02 0.022 0.00185 0.0205 0.022 0.00185 0.021 0.022 0.0019
0.001 0.022 0.0019 0.0015 0.022 0.0019 0.002 0.022 0.0019 0.0025
0.022 0.0019 0.003 0.022 0.0019 0.004 0.022 0.0019 0.0045 0.022
0.0019 0.005 0.022 0.0019 0.0055 0.022 0.0019 0.006 0.022 0.0019
0.007 0.022 0.0019 0.0075 0.022 0.0019 0.008 0.022 0.0019 0.0085
0.022 0.0019 0.009 0.022 0.0019 0.01 0.022 0.0019 0.0105 0.022
0.0019 0.011 0.022 0.0019 0.0115 0.022 0.0019 0.012 0.022 0.0019
0.013 0.022 0.0019 0.0135 0.022 0.0019 0.014 0.022 0.0019 0.0145
0.022 0.0019 0.015 0.022 0.0019 0.016 0.022 0.0019 0.0165 0.022
0.0019 0.017 0.022 0.0019 0.0175 0.022 0.0019 0.018 0.022 0.0019
0.019 0.022 0.0019 0.0195 0.022 0.0019 0.02 0.022 0.0019 0.0205
0.022 0.0019 0.021 0.022 0.00195 0.001 0.022 0.00195 0.0015 0.022
0.00195 0.002 0.022 0.00195 0.0025 0.022 0.00195 0.003 0.022 0.00195
0.004 0.022 0.00195 0.0045 0.022 0.00195 0.005 0.022 0.00195 0.0055
0.022 0.00195 0.006 0.022 0.00195 0.007 0.022 0.00195 0.0075 0.022
0.00195 0.008 0.022 0.00195 0.0085 0.022 0.00195 0.009 0.022 0.00195
0.01 0.022 0.00195 0.0105 0.022 0.00195 0.011 0.022 0.00195 0.0115
0.022 0.00195 0.012 0.022 0.00195 0.013 0.022 0.00195 0.0135 0.022
0.00195 0.014 0.022 0.00195 0.0145 0.022 0.00195 0.015 0.022 0.00195
0.016 0.022 0.00195 0.0165 0.022 0.00195 0.017 0.022 0.00195 0.0175
0.022 0.00195 0.018 0.022 0.00195 0.019 0.022 0.00195 0.0195 0.022
0.00195 0.02 0.022 0.00195 0.0205 0.022 0.00195 0.021 0.022 0.002
0.001 0.022 0.002 0.0015 0.022 0.002 0.002 0.022 0.002 0.0025
0.022 0.002 0.003 0.022 0.002 0.004 0.022 0.002 0.0045 0.022
0.002 0.005 0.022 0.002 0.0055 0.022 0.002 0.006 0.022 0.002
0.007 0.022 0.002 0.0075 0.022 0.002 0.008 0.022 0.002 0.0085
0.022 0.002 0.009 0.022 0.002 0.01 0.022 0.002 0.0105 0.022
0.002 0.011 0.022 0.002 0.0115 0.022 0.002 0.012 0.022 0.002
0.013 0.022 0.002 0.0135 0.022 0.002 0.014 0.022 0.002 0.0145
0.022 0.002 0.015 0.022 0.002 0.016 0.022 0.002 0.0165 0.022
0.002 0.017 0.022 0.002 0.0175 0.022 0.002 0.018 0.022 0.002
0.019 0.022 0.002 0.0195 0.022 0.002 0.02 0.022 0.002 0.0205
0.022 0.002 0.021 0.022 0.00205 0.001 0.022 0.00205 0.0015 0.022
0.00205 0.002 0.022 0.00205 0.0025 0.022 0.00205 0.003 0.022 0.00205
0.004 0.022 0.00205 0.0045 0.022 0.00205 0.005 0.022 0.00205 0.0055
0.022 0.00205 0.006 0.022 0.00205 0.007 0.022 0.00205 0.0075 0.022
0.00205 0.008 0.022 0.00205 0.0085 0.022 0.00205 0.009 0.022 0.00205
0.01 0.022 0.00205 0.0105 0.022 0.00205 0.011 0.022 0.00205 0.0115
0.022 0.00205 0.012 0.022 0.00205 0.013 0.022 0.00205 0.0135 0.022
0.00205 0.014 0.022 0.00205 0.0145 0.022 0.00205 0.015 0.022 0.00205
0.016 0.022 0.00205 0.0165 0.022 0.00205 0.017 0.022 0.00205 0.0175
0.022 0.00205 0.018 0.022 0.00205 0.019 0.022 0.00205 0.0195 0.022
0.00205 0.02 0.022 0.00205 0.0205 0.022 0.00205 0.021 0.022 0.0021
0.001 0.022 0.0021 0.0015 0.022 0.0021 0.002 0.022 0.0021 0.0025
0.022 0.0021 0.003 0.022 0.0021 0.004 0.022 0.0021 0.0045 0.022
0.0021 0.005 0.022 0.0021 0.0055 0.022 0.0021 0.006 0.022 0.0021
0.007 0.022 0.0021 0.0075 0.022 0.0021 0.008 0.022 0.0021 0.0085
0.022 0.0021 0.009 0.022 0.0021 0.01 0.022 0.0021 0.0105 0.022
0.0021 0.011 0.022 0.0021 0.0115 0.022 0.0021 0.012 0.022 0.0021
0.013 0.022 0.0021 0.0135 0.022 0.0021 0.014 0.022 0.0021 0.0145
0.022 0.0021 0.015 0.022 0.0021 0.016 0.022 0.0021 0.0165 0.022
0.0021 0.017 0.022 0.0021 0.0175 0.022 0.0021 0.018 0.022 0.0021
0.019 0.022 0.0021 0.0195 0.022 0.0021 0.02 0.022 0.0021 0.0205
0.022 0.0021 0.021 0.022 0.00215 0.001 0.022 0.00215 0.0015 0.022
0.00215 0.002 0.022 0.00215 0.0025 0.022 0.00215 0.003 0.022 0.00215
0.004 0.022 0.00215 0.0045 0.022 0.00215 0.005 0.022 0.00215 0.0055
0.022 0.00215 0.006 0.022 0.00215 0.007 0.022 0.00215 0.0075 0.022
0.00215 0.008 0.022 0.00215 0.0085 0.022 0.00215 0.009 0.022 0.00215
0.01 0.022 0.00215 0.0105 0.022 0.00215 0.011 0.022 0.00215 0.0115
0.022 0.00215 0.012 0.022 0.00215 0.013 0.022 0.00215 0.0135 0.022
0.00215 0.014 0.022 0.00215 0.0145 0.022 0.00215 0.015 0.022 0.00215
0.016 0.022 0.00215 0.0165 0.022 0.00215 0.017 0.022 0.00215 0.0175
0.022 0.00215 0.018 0.022 0.00215 0.019 0.022 0.00215 0.0195 0.022
0.00215 0.02 0.022 0.00215 0.0205 0.022 0.00215 0.021 0.022 0.0022
0.001 0.022 0.0022 0.0015 0.022 0.0022 0.002 0.022 0.0022 0.0025
0.022 0.0022 0.003 0.022 0.0022 0.004 0.022 0.0022 0.0045 0.022
0.0022 0.005 0.022 0.0022 0.0055 0.022 0.0022 0.006 0.022 0.0022
[...]
CELL_DATA 840
FIELD attributes 4
patchID 1 840 float
3 3 3 3 3 3 3 3 3 3 3
3 3 3 3 3 3 3 3 3 3
3 3 3 3 3 3 3 3 3 3
3 3 3 3 3 3 3 3 3 3
3 3 3 3 3 3 3 3 3 3
3 3 3 3 3 3 3 3 3 3
3 3 3 3 3 3 3 3 3 3
3 3 3 3 3 3 3 3 3 3
3 3 3 3 3 3 3 3 3 3
3 3 3 3 3 3 3 3 3 3
3 3 3 3 3 3 3 3 3 3
3 3 3 3 3 3 3 3 3 3
3 3 3 3 3 3 3 3 3 3
3 3 3 3 3 3 3 3 3 3
3 3 3 3 3 3 3 3 3 3
3 3 3 3 3 3 3 3 3 3
3 3 3 3 3 3 3 3 3 3
3 3 3 3 3 3 3 3 3 3
3 3 3 3 3 3 3 3 3 3
3 3 3 3 3 3 3 3 3 3
3 3 3 3 3 3 3 3 3 3
3 3 3 3 3 3 3 3 3 3
3 3 3 3 3 3 3 3 3 3
3 3 3 3 3 3 3 3 3 3
3 3 3 3 3 3 3 3 3 3
3 3 3 3 3 3 3 3 3 3
3 3 3 3 3 3 3 3 3 3
3 3 3 3 3 3 3 3 3 3
3 3 3 3 3 3 3 3 3 3
3 3 3 3 3 3 3 3 3 3
3 3 3 3 3 3 3 3 3 3
3 3 3 3 3 3 3 3 3 3
3 3 3 3 3 3 3 3 3 3
3 3 3 3 3 3 3 3 3 3
3 3 3 3 3 3 3 3 3 3
3 3 3 3 3 3 3 3 3 3
3 3 3 3 3 3 3 3 3 3
3 3 3 3 3 3 3 3 3 3
3 3 3 3 3 3 3 3 3 3
3 3 3 3 3 3 3 3 3 3
3 3 3 3 3 3 3 3 3 3
3 3 3 3 3 3 3 3 3 3
3 3 3 3 3 3 3 3 3 3
3 3 3 3 3 3 3 3 3 3
3 3 3 3 3 3 3 3 3 3
3 3 3 3 3 3 3 3 3 3
3 3 3 3 3 3 3 3 3 3
3 3 3 3 3 3 3 3 3 3
3 3 3 3 3 3 3 3 3 3
3 3 3 3 3 3 3 3 3 3
3 3 3 3 3 3 3 3 3 3
3 3 3 3 3 3 3 3 3 3
3 3 3 3 3 3 3 3 3 3
3 3 3 3 3 3 3 3 3 3
3 3 3 3 3 3 3 3 3 3
3 3 3 3 3 3 3 3 3 3
3 3 3 3 3 3 3 3 3 3
3 3 3 3 3 3 3 3 3 3
3 3 3 3 3 3 3 3 3 3
3 3 3 3 3 3 3 3 3 3
3 3 3 3 3 3 3 3 3 3
3 3 3 3 3 3 3 3 3 3
3 3 3 3 3 3 3 3 3 3
3 3 3 3 3 3 3 3 3 3
3 3 3 3 3 3 3 3 3 3
3 3 3 3 3 3 3 3 3 3
3 3 3 3 3 3 3 3 3 3
3 3 3 3 3 3 3 3 3 3
3 3 3 3 3 3 3 3 3 3
3 3 3 3 3 3 3 3 3 3
3 3 3 3 3 3 3 3 3 3
3 3 3 3 3 3 3 3 3 3
3 3 3 3 3 3 3 3 3 3
3 3 3 3 3 3 3 3 3 3
3 3 3 3 3 3 3 3 3 3
3 3 3 3 3 3 3 3 3 3
3 3 3 3 3 3 3 3 3 3
3 3 3 3 3 3 3 3 3 3
3 3 3 3 3 3 3 3 3 3
3 3 3 3 3 3 3 3 3 3
3 3 3 3 3 3 3 3 3 3
3 3 3 3 3 3 3 3 3 3
3 3 3 3 3 3 3 3 3 3
3 3 3 3 3 3 3 3 3 
T 1 840 float
353.239 353.238 353.238 353.239 353.239 353.238 353.238 353.239 353.239 353.238 353.238
353.239 353.239 353.238 353.238 353.239 353.239 353.238 353.238 353.239 353.239
353.238 353.238 353.239 353.239 353.238 353.238 353.239 353.238 353.236 353.236
353.239 353.239 353.236 353.236 353.238 353.238 353.236 353.236 353.238 353.238
353.236 353.236 353.238 353.238 353.236 353.236 353.238 353.238 353.236 353.236
353.239 353.239 353.236 353.236 353.238 353.238 353.234 353.234 353.238 353.238
353.234 353.234 353.238 353.238 353.234 353.234 353.238 353.238 353.234 353.234
353.238 353.238 353.234 353.234 353.238 353.238 353.234 353.234 353.238 353.238
353.234 353.234 353.238 353.237 353.232 353.232 353.237 353.237 353.232 353.232
353.237 353.237 353.232 353.232 353.237 353.237 353.232 353.232 353.237 353.237
353.232 353.232 353.237 353.237 353.232 353.232 353.237 353.237 353.232 353.232
353.237 353.236 353.23 353.23 353.237 353.237 353.23 353.23 353.237 353.237
353.229 353.229 353.236 353.236 353.229 353.229 353.236 353.236 353.229 353.229
353.236 353.237 353.23 353.23 353.237 353.237 353.23 353.23 353.236 353.236
353.228 353.228 353.236 353.236 353.228 353.228 353.236 353.236 353.228 353.228
353.236 353.236 353.228 353.228 353.236 353.236 353.228 353.228 353.236 353.236
353.228 353.228 353.236 353.236 353.228 353.228 353.236 353.235 353.226 353.226
353.236 353.236 353.226 353.226 353.235 353.235 353.226 353.226 353.235 353.235
353.226 353.226 353.235 353.235 353.226 353.226 353.235 353.235 353.226 353.226
353.236 353.236 353.226 353.226 353.235 353.235 353.225 353.225 353.235 353.235
353.224 353.224 353.235 353.235 353.224 353.224 353.235 353.235 353.224 353.224
353.235 353.235 353.224 353.224 353.235 353.235 353.224 353.224 353.235 353.235
353.225 353.225 353.235 353.235 353.224 353.224 353.235 353.235 353.223 353.223
353.235 353.235 353.223 353.223 353.235 353.235 353.223 353.223 353.235 353.235
353.223 353.223 353.235 353.235 353.223 353.223 353.235 353.235 353.224 353.224
353.234 353.234 353.223 353.223 353.235 353.235 353.222 353.222 353.234 353.234
353.222 353.222 353.234 353.234 353.222 353.222 353.234 353.234 353.222 353.222
353.234 353.234 353.222 353.222 353.235 353.235 353.223 353.223 353.234 353.234
353.222 353.222 353.235 353.235 353.222 353.221 353.234 353.234 353.221 353.221
353.234 353.234 353.221 353.221 353.234 353.234 353.221 353.221 353.234 353.234
353.221 353.222 353.235 353.235 353.222 353.222 353.234 353.234 353.222 353.222
353.235 353.235 353.221 353.221 353.235 353.235 353.221 353.221 353.234 353.234
353.221 353.221 353.234 353.234 353.221 353.221 353.234 353.235 353.221 353.221
353.235 353.235 353.222 353.222 353.234 353.235 353.222 353.222 353.235 353.235
353.221 353.221 353.235 353.235 353.221 353.221 353.235 353.235 353.221 353.221
353.235 353.235 353.221 353.221 353.235 353.235 353.221 353.221 353.235 353.235
353.222 353.222 353.235 353.235 353.222 353.222 353.236 353.236 353.222 353.222
353.235 353.235 353.221 353.221 353.235 353.235 353.221 353.221 353.235 353.235
353.221 353.221 353.235 353.235 353.222 353.222 353.236 353.236 353.222 353.222
353.235 353.236 353.223 353.223 353.236 353.236 353.223 353.223 353.236 353.236
353.222 353.222 353.236 353.236 353.222 353.222 353.236 353.236 353.222 353.222
353.236 353.236 353.223 353.223 353.236 353.236 353.223 353.223 353.236 353.237
353.224 353.224 353.237 353.237 353.224 353.224 353.237 353.237 353.224 353.224
353.237 353.237 353.224 353.224 353.237 353.237 353.224 353.224 353.237 353.237
353.224 353.224 353.237 353.237 353.224 353.224 353.236 353.237 353.226 353.226
353.238 353.238 353.226 353.226 353.238 353.238 353.225 353.225 353.238 353.238
353.225 353.225 353.238 353.238 353.225 353.225 353.238 353.238 353.226 353.226
353.238 353.238 353.226 353.226 353.237 353.238 353.228 353.228 353.239 353.239
353.228 353.228 353.239 353.239 353.228 353.227 353.239 353.239 353.227 353.227
353.239 353.239 353.227 353.228 353.239 353.239 353.228 353.228 353.239 353.239
353.228 353.228 353.238 353.24 353.231 353.23 353.24 353.24 353.23 353.23
353.24 353.24 353.23 353.23 353.24 353.24 353.23 353.23 353.24 353.24
353.23 353.23 353.24 353.24 353.23 353.23 353.24 353.24 353.23 353.231
353.24 353.241 353.233 353.233 353.242 353.242 353.233 353.233 353.242 353.241
353.233 353.233 353.241 353.241 353.233 353.233 353.241 353.241 353.233 353.233
353.241 353.242 353.233 353.233 353.242 353.242 353.233 353.233 353.241 353.243
353.236 353.236 353.243 353.243 353.236 353.236 353.243 353.243 353.236 353.236
353.243 353.243 353.236 353.236 353.243 353.243 353.236 353.236 353.243 353.243
353.236 353.236 353.243 353.243 353.236 353.236 353.243 353.244 353.24 353.24
353.245 353.245 353.24 353.239 353.245 353.245 353.239 353.239 353.245 353.245
353.239 353.239 353.245 353.245 353.239 353.239 353.245 353.245 353.239 353.24
353.245 353.245 353.239 353.24 353.244 353.246 353.243 353.243 353.247 353.247
353.243 353.243 353.247 353.247 353.243 353.243 353.247 353.246 353.243 353.243
353.246 353.247 353.243 353.243 353.247 353.247 353.243 353.243 353.247 353.247
353.243 353.243 353.246 353.248 353.246 353.246 353.249 353.249 353.247 353.246
353.249 353.249 353.246 353.246 353.249 353.248 353.246 353.246 353.248 353.249
353.246 353.246 353.249 353.249 353.246 353.247 353.249 353.249 353.246 353.246
353.248 353.25 353.25 353.25 353.25 353.251 353.25 353.25 353.251 353.25
353.25 353.25 353.25 353.25 353.25 353.25 353.25 353.25 353.25 353.25
353.25 353.251 353.25 353.25 353.251 353.25 353.25 353.25 353.25 353.251
353.254 353.254 353.253 353.253 353.254 353.254 353.253 353.253 353.254 353.254
353.252 353.252 353.254 353.254 353.252 353.252 353.254 353.254 353.253 353.253
353.254 353.254 353.253 353.253 353.254 353.254 353.251 353.253 353.257 353.257
353.254 353.255 353.257 353.257 353.254 353.254 353.257 353.257 353.254 353.254
353.257 353.257 353.254 353.254 353.257 353.257 353.254 353.254 353.257 353.257
353.255 353.254 353.257 353.257 353.253 353.255 353.26 353.26 353.256 353.257
353.261 353.261 353.257 353.257 353.26 353.26 353.256 353.256 353.26 353.26
353.256 353.256 353.26 353.26 353.257 353.257 353.261 353.261 353.257 353.256
353.26 353.26 353.255 353.257 353.263 353.263 353.258 353.259 353.264 353.264
353.259 353.258 353.264 353.264 353.258 353.258 353.263 353.263 353.258 353.258
353.264 353.264 353.258 353.259 353.264 353.264 353.259 353.258 353.263 353.263
353.257 353.259 353.266 353.266 353.26 353.26 353.267 353.267 353.26 353.26
353.266 353.266 353.26 353.26 353.266 353.266 353.26 353.26 353.266 353.266
353.26 353.26 353.267 353.267 353.26 353.26 353.266 353.266 353.259 
Tsource 1 840 float
0 0 0 0 0 0 0 0 0 0 0
0 0 0 0 0 0 0 0 0 0
0 0 0 0 0 0 0 0 0 0
0 0 0 0 0 0 0 0 0 0
0 0 0 0 0 0 0 0 0 0
0 0 0 0 0 0 0 0 0 0
0 0 0 0 0 0 0 0 0 0
0 0 0 0 0 0 0 0 0 0
0 0 0 0 0 0 0 0 0 0
0 0 0 0 0 0 0 0 0 0
0 0 0 0 0 0 0 0 0 0
0 0 0 0 0 0 0 0 0 0
0 0 0 0 0 0 0 0 0 0
0 0 0 0 0 0 0 0 0 0
0 0 0 0 0 0 0 0 0 0
0 0 0 0 0 0 0 0 0 0
0 0 0 0 0 0 0 0 0 0
0 0 0 0 0 0 0 0 0 0
0 0 0 0 0 0 0 0 0 0
0 0 0 0 0 0 0 0 0 0
0 0 0 0 0 0 0 0 0 0
0 0 0 0 0 0 0 0 0 0
0 0 0 0 0 0 0 0 0 0
0 0 0 0 0 0 0 0 0 0
0 0 0 0 0 0 0 0 0 0
0 0 0 0 0 0 0 0 0 0
0 0 0 0 0 0 0 0 0 0
0 0 0 0 0 0 0 0 0 0
0 0 0 0 0 0 0 0 0 0
0 0 0 0 0 0 0 0 0 0
0 0 0 0 0 0 0 0 0 0
0 0 0 0 0 0 0 0 0 0
0 0 0 0 0 0 0 0 0 0
0 0 0 0 0 0 0 0 0 0
0 0 0 0 0 0 0 0 0 0
0 0 0 0 0 0 0 0 0 0
0 0 0 0 0 0 0 0 0 0
0 0 0 0 0 0 0 0 0 0
0 0 0 0 0 0 0 0 0 0
0 0 0 0 0 0 0 0 0 0
0 0 0 0 0 0 0 0 0 0
0 0 0 0 0 0 0 0 0 0
0 0 0 0 0 0 0 0 0 0
0 0 0 0 0 0 0 0 0 0
0 0 0 0 0 0 0 0 0 0
0 0 0 0 0 0 0 0 0 0
0 0 0 0 0 0 0 0 0 0
0 0 0 0 0 0 0 0 0 0
0 0 0 0 0 0 0 0 0 0
0 0 0 0 0 0 0 0 0 0
0 0 0 0 0 0 0 0 0 0
0 0 0 0 0 0 0 0 0 0
0 0 0 0 0 0 0 0 0 0
0 0 0 0 0 0 0 0 0 0
0 0 0 0 0 0 0 0 0 0
0 0 0 0 0 0 0 0 0 0
0 0 0 0 0 0 0 0 0 0
0 0 0 0 0 0 0 0 0 0
0 0 0 0 0 0 0 0 0 0
0 0 0 0 0 0 0 0 0 0
0 0 0 0 0 0 0 0 0 0
0 0 0 0 0 0 0 0 0 0
0 0 0 0 0 0 0 0 0 0
0 0 0 0 0 0 0 0 0 0
0 0 0 0 0 0 0 0 0 0
0 0 0 0 0 0 0 0 0 0
0 0 0 0 0 0 0 0 0 0
0 0 0 0 0 0 0 0 0 0
0 0 0 0 0 0 0 0 0 0
0 0 0 0 0 0 0 0 0 0
0 0 0 0 0 0 0 0 0 0
0 0 0 0 0 0 0 0 0 0
0 0 0 0 0 0 0 0 0 0
0 0 0 0 0 0 0 0 0 0
0 0 0 0 0 0 0 0 0 0
0 0 0 0 0 0 0 0 0 0
0 0 0 0 0 0 0 0 0 0
0 0 0 0 0 0 0 0 0 0
0 0 0 0 0 0 0 0 0 0
0 0 0 0 0 0 0 0 0 0
0 0 0 0 0 0 0 0 0 0
0 0 0 0 0 0 0 0 0 0
0 0 0 0 0 0 0 0 0 0
0 0 0 0 0 0 0 0 0 
k 1 840 float
0.0292035 0.0292041 0.0292043 0.029204 0.0292043 0.0292046 0.0292046 0.0292043 0.0292043 0.0292046 0.0292046
0.0292043 0.0292043 0.0292046 0.0292046 0.0292043 0.0292043 0.0292046 0.0292046 0.0292043 0.0292043
0.0292046 0.0292046 0.0292043 0.029204 0.0292043 0.0292041 0.0292035 0.0292035 0.029204 0.0292042
0.029204 0.0292042 0.0292045 0.0292045 0.0292042 0.0292042 0.0292045 0.0292045 0.0292042 0.0292042
0.0292045 0.0292045 0.0292042 0.0292042 0.0292045 0.0292045 0.0292042 0.0292042 0.0292045 0.0292045
0.0292042 0.029204 0.0292042 0.029204 0.0292035 0.0292034 0.0292038 0.029204 0.0292039 0.0292042
0.0292043 0.0292043 0.0292042 0.0292042 0.0292043 0.0292043 0.0292042 0.0292042 0.0292043 0.0292043
0.0292042 0.0292042 0.0292043 0.0292043 0.0292042 0.0292042 0.0292043 0.0292043 0.0292042 0.0292039
0.029204 0.0292038 0.0292034 0.0292033 0.0292037 0.0292039 0.0292038 0.0292041 0.0292042 0.0292042
0.0292041 0.0292041 0.0292042 0.0292042 0.0292041 0.0292041 0.0292042 0.0292042 0.0292041 0.0292041
0.0292042 0.0292042 0.0292041 0.0292041 0.0292042 0.0292042 0.0292041 0.0292038 0.0292039 0.0292037
0.0292033 0.0292032 0.0292035 0.0292037 0.0292037 0.029204 0.029204 0.029204 0.029204 0.029204
0.029204 0.029204 0.029204 0.029204 0.029204 0.029204 0.029204 0.029204 0.029204 0.029204
0.029204 0.029204 0.029204 0.029204 0.029204 0.0292037 0.0292037 0.0292035 0.0292032 0.029203
0.0292033 0.0292035 0.0292036 0.0292039 0.0292038 0.0292038 0.0292039 0.0292039 0.0292038 0.0292038
0.0292039 0.0292039 0.0292038 0.0292038 0.0292039 0.0292039 0.0292038 0.0292038 0.0292039 0.0292039
0.0292038 0.0292038 0.0292039 0.0292036 0.0292035 0.0292033 0.029203 0.0292028 0.0292031 0.0292033
0.0292035 0.0292037 0.0292037 0.0292037 0.0292037 0.0292037 0.0292036 0.0292036 0.0292037 0.0292037
0.0292036 0.0292036 0.0292037 0.0292037 0.0292036 0.0292036 0.0292037 0.0292037 0.0292037 0.0292037
0.0292037 0.0292035 0.0292033 0.0292031 0.0292028 0.0292026 0.0292029 0.0292032 0.0292033 0.0292036
0.0292035 0.0292035 0.0292036 0.0292036 0.0292035 0.0292035 0.0292036 0.0292036 0.0292035 0.0292035
0.0292036 0.0292036 0.0292035 0.0292035 0.0292036 0.0292036 0.0292035 0.0292035 0.0292036 0.0292033
0.0292032 0.0292029 0.0292026 0.0292024 0.0292027 0.029203 0.0292031 0.0292034 0.0292033 0.0292033
0.0292034 0.0292034 0.0292033 0.0292033 0.0292034 0.0292034 0.0292033 0.0292033 0.0292034 0.0292034
0.0292033 0.0292033 0.0292034 0.0292034 0.0292033 0.0292033 0.0292034 0.0292031 0.029203 0.0292027
0.0292024 0.0292022 0.0292025 0.0292028 0.0292029 0.0292032 0.0292031 0.0292031 0.0292032 0.0292032
0.0292031 0.0292031 0.0292032 0.0292032 0.0292031 0.0292031 0.0292032 0.0292032 0.0292031 0.0292031
0.0292032 0.0292032 0.0292031 0.0292031 0.0292032 0.0292029 0.0292028 0.0292025 0.0292022 0.0292019
0.0292023 0.0292026 0.0292027 0.029203 0.0292029 0.0292029 0.029203 0.029203 0.0292029 0.0292029
0.029203 0.029203 0.0292029 0.0292029 0.029203 0.029203 0.0292029 0.0292029 0.029203 0.029203
0.0292029 0.0292029 0.029203 0.0292027 0.0292026 0.0292023 0.0292019 0.0292016 0.029202 0.0292023
0.0292025 0.0292028 0.0292027 0.0292027 0.0292028 0.0292028 0.0292027 0.0292027 0.0292028 0.0292028
0.0292027 0.0292027 0.0292028 0.0292028 0.0292027 0.0292027 0.0292028 0.0292028 0.0292027 0.0292027
0.0292028 0.0292025 0.0292023 0.029202 0.0292016 0.0292012 0.0292018 0.0292021 0.0292023 0.0292025
0.0292025 0.0292025 0.0292025 0.0292025 0.0292025 0.0292025 0.0292025 0.0292025 0.0292025 0.0292025
0.0292025 0.0292025 0.0292025 0.0292025 0.0292025 0.0292025 0.0292025 0.0292025 0.0292025 0.0292023
0.0292021 0.0292018 0.0292012 0.0292008 0.0292015 0.0292019 0.029202 0.0292022 0.0292023 0.0292023
0.0292023 0.0292023 0.0292023 0.0292023 0.0292023 0.0292023 0.0292023 0.0292023 0.0292023 0.0292023
0.0292023 0.0292023 0.0292023 0.0292023 0.0292023 0.0292023 0.0292022 0.029202 0.0292019 0.0292015
0.0292008 0.0292004 0.0292013 0.0292017 0.0292017 0.029202 0.0292021 0.0292021 0.029202 0.029202
0.0292021 0.0292021 0.029202 0.029202 0.0292021 0.0292021 0.029202 0.029202 0.0292021 0.0292021
0.029202 0.029202 0.0292021 0.0292021 0.029202 0.0292017 0.0292017 0.0292013 0.0292004 0.0292
0.029201 0.0292014 0.0292014 0.0292016 0.0292019 0.0292019 0.0292017 0.0292017 0.0292019 0.0292019
0.0292017 0.0292017 0.0292019 0.0292019 0.0292017 0.0292017 0.0292019 0.0292019 0.0292017 0.0292017
0.0292019 0.0292019 0.0292016 0.0292014 0.0292014 0.029201 0.0292 0.0291995 0.0292007 0.0292012
0.029201 0.0292013 0.0292017 0.0292017 0.0292014 0.0292013 0.0292017 0.0292017 0.0292013 0.0292013
0.0292017 0.0292017 0.0292013 0.0292013 0.0292017 0.0292017 0.0292013 0.0292014 0.0292017 0.0292017
0.0292013 0.029201 0.0292012 0.0292007 0.0291995 0.029199 0.0292004 0.029201 0.0292007 0.029201
0.0292015 0.0292015 0.029201 0.029201 0.0292015 0.0292015 0.029201 0.029201 0.0292015 0.0292015
0.029201 0.029201 0.0292015 0.0292015 0.029201 0.029201 0.0292015 0.0292015 0.029201 0.0292007
0.029201 0.0292004 0.029199 0.0291984 0.0292001 0.0292007 0.0292003 0.0292006 0.0292013 0.0292013
0.0292007 0.0292006 0.0292013 0.0292013 0.0292006 0.0292006 0.0292013 0.0292013 0.0292006 0.0292006
0.0292013 0.0292013 0.0292006 0.0292007 0.0292013 0.0292013 0.0292006 0.0292003 0.0292007 0.0292001
0.0291984 0.0291978 0.0291998 0.0292005 0.0291999 0.0292002 0.029201 0.0292011 0.0292003 0.0292002
0.029201 0.029201 0.0292003 0.0292002 0.029201 0.029201 0.0292002 0.0292003 0.029201 0.029201
0.0292002 0.0292003 0.0292011 0.029201 0.0292002 0.0291999 0.0292005 0.0291998 0.0291978 0.0291972
0.0291995 0.0292002 0.0291995 0.0291998 0.0292008 0.0292009 0.0291999 0.0291998 0.0292008 0.0292008
0.0291998 0.0291998 0.0292008 0.0292008 0.0291998 0.0291998 0.0292008 0.0292008 0.0291998 0.0291999
0.0292009 0.0292008 0.0291998 0.0291995 0.0292002 0.0291995 0.0291972 0.0291965 0.0291991 0.0292
0.029199 0.0291993 0.0292006 0.0292006 0.0291994 0.0291994 0.0292006 0.0292006 0.0291994 0.0291994
0.0292006 0.0292006 0.0291994 0.0291994 0.0292006 0.0292006 0.0291994 0.0291994 0.0292006 0.0292006
0.0291993 0.029199 0.0292 0.0291991 0.0291965 0.0291957 0.0291988 0.0291997 0.0291986 0.0291989
0.0292003 0.0292004 0.029199 0.029199 0.0292004 0.0292004 0.029199 0.029199 0.0292004 0.0292004
0.029199 0.029199 0.0292004 0.0292004 0.029199 0.029199 0.0292004 0.0292003 0.0291989 0.0291986
0.0291997 0.0291988 0.0291957 0.0291949 0.0291984 0.0291994 0.0291981 0.0291984 0.0292001 0.0292001
0.0291985 0.0291985 0.0292001 0.0292001 0.0291985 0.0291985 0.0292001 0.0292001 0.0291985 0.0291985
0.0292001 0.0292001 0.0291985 0.0291985 0.0292001 0.0292001 0.0291984 0.0291981 0.0291994 0.0291984
0.0291949 0.0291941 0.029198 0.0291991 0.0291976 0.0291979 0.0291998 0.0291999 0.029198 0.029198
0.0291999 0.0291999 0.029198 0.029198 0.0291999 0.0291999 0.029198 0.029198 0.0291999 0.0291999
0.029198 0.029198 0.0291999 0.0291998 0.0291979 0.0291976 0.0291991 0.029198 0.0291941 0.0291932
0.0291976 0.0291988 0.0291971 0.0291974 0.0291995 0.0291996 0.0291975 0.0291975 0.0291996 0.0291996
0.0291975 0.0291975 0.0291996 0.0291996 0.0291975 0.0291975 0.0291996 0.0291996 0.0291975 0.0291975
0.0291996 0.0291995 0.0291974 0.0291971 0.0291988 0.0291976 0.0291932 0.0291923 0.0291971 0.0291984
0.0291965 0.0291968 0.0291992 0.0291993 0.029197 0.0291969 0.0291993 0.0291993 0.0291969 0.0291969
0.0291993 0.0291993 0.0291969 0.0291969 0.0291993 0.0291993 0.0291969 0.029197 0.0291993 0.0291992
0.0291968 0.0291965 0.0291984 0.0291971 0.0291923 0.0291914 0.0291967 0.0291981 0.0291959 0.0291962
0.0291989 0.029199 0.0291964 0.0291964 0.029199 0.029199 0.0291964 0.0291964 0.029199 0.029199
0.0291964 0.0291964 0.029199 0.029199 0.0291964 0.0291964 0.029199 0.0291989 0.0291962 0.0291959
0.0291981 0.0291967 0.0291914 0.0291904 0.0291962 0.0291977 0.0291954 0.0291956 0.0291986 0.0291987
0.0291958 0.0291958 0.0291987 0.0291987 0.0291958 0.0291958 0.0291987 0.0291987 0.0291958 0.0291958
0.0291987 0.0291987 0.0291958 0.0291958 0.0291987 0.0291986 0.0291956 0.0291954 0.0291977 0.0291962
0.0291904 0.0291893 0.0291957 0.0291973 0.0291948 0.0291951 0.0291983 0.0291983 0.0291952 0.0291952
0.0291983 0.0291983 0.0291952 0.0291952 0.0291983 0.0291983 0.0291952 0.0291952 0.0291983 0.0291983
0.0291952 0.0291952 0.0291983 0.0291983 0.0291951 0.0291948 0.0291973 0.0291957 0.0291894 
POINT_DATA  1085
FIELD attributes 3
T 1 1085 float
353.239 353.239 353.238 353.239 353.237 353.238 353.238 353.239 353.239 353.239 353.239
353.239 353.238 353.239 353.237 353.238 353.238 353.239 353.239 353.239 353.239
353.239 353.238 353.239 353.237 353.238 353.238 353.239 353.239 353.239 353.239
353.239 353.238 353.239 353.237 353.238 353.238 353.239 353.239 353.239 353.239
353.239 353.238 353.239 353.237 353.238 353.238 353.239 353.239 353.239 353.239
353.239 353.238 353.239 353.237 353.238 353.238 353.239 353.239 353.239 353.239
353.239 353.238 353.239 353.237 353.238 353.238 353.239 353.239 353.239 353.238
353.237 353.235 353.237 353.238 353.238 353.237 353.235 353.237 353.238 353.238
353.237 353.235 353.236 353.238 353.238 353.236 353.235 353.236 353.238 353.238
353.236 353.235 353.237 353.238 353.238 353.237 353.235 353.237 353.238 353.238
353.237 353.235 353.237 353.238 353.237 353.235 353.233 353.235 353.238 353.238
353.235 353.233 353.235 353.237 353.237 353.235 353.233 353.235 353.237 353.237
353.235 353.233 353.235 353.237 353.237 353.235 353.233 353.235 353.237 353.237
353.235 353.233 353.235 353.238 353.238 353.235 353.233 353.235 353.237 353.237
353.234 353.231 353.234 353.237 353.237 353.234 353.231 353.234 353.237 353.237
353.234 353.231 353.234 353.237 353.237 353.234 353.23 353.234 353.237 353.237
353.234 353.231 353.234 353.237 353.237 353.234 353.231 353.234 353.237 353.237
353.234 353.231 353.234 353.237 353.236 353.233 353.229 353.233 353.236 353.236
353.233 353.229 353.232 353.236 353.236 353.232 353.229 353.232 353.236 353.236