# vtk DataFile Version 2.0
airOutlet
ASCII
DATASET POLYDATA
POINTS 1085 float
0.0015 0.001 0.022 0.00155 0.001 0.022 0.00155 0.0015 0.022 0.0015 0.0015
0.022 0.00155 0.002 0.022 0.0015 0.002 0.022 0.00155 0.0025 0.022
0.0015 0.0025 0.022 0.00155 0.003 0.022 0.0015 0.003 0.022 0.0015
0.004 0.022 0.00155 0.004 0.022 0.00155 0.0045 0.022 0.0015 0.0045
0.022 0.00155 0.005 0.022 0.0015 0.005 0.022 0.00155 0.0055 0.022
0.0015 0.0055 0.022 0.00155 0.006 0.022 0.0015 0.006 0.022 0.0015
0.007 0.022 0.00155 0.007 0.022 0.00155 0.0075 0.022 0.0015 0.0075
0.022 0.00155 0.008 0.022 0.0015 0.008 0.022 0.00155 0.0085 0.022
0.0015 0.0085 0.022 0.00155 0.009 0.022 0.0015 0.009 0.022 0.0015
0.01 0.022 0.00155 0.01 0.022 0.00155 0.0105 0.022 0.0015 0.0105
0.022 0.00155 0.011 0.022 0.0015 0.011 0.022 0.00155 0.0115 0.022
0.0015 0.0115 0.022 0.00155 0.012 0.022 0.0015 0.012 0.022 0.0015
0.013 0.022 0.00155 0.013 0.022 0.00155 0.0135 0.022 0.0015 0.0135
0.022 0.00155 0.014 0.022 0.0015 0.014 0.022 0.00155 0.0145 0.022
0.0015 0.0145 0.022 0.00155 0.015 0.022 0.0015 0.015 0.022 0.0015
0.016 0.022 0.00155 0.016 0.022 0.00155 0.0165 0.022 0.0015 0.0165
0.022 0.00155 0.017 0.022 0.0015 0.017 0.022 0.00155 0.0175 0.022
0.0015 0.0175 0.022 0.00155 0.018 0.022 0.0015 0.018 0.022 0.0015
0.019 0.022 0.00155 0.019 0.022 0.00155 0.0195 0.022 0.0015 0.0195
0.022 0.00155 0.02 0.022 0.0015 0.02 0.022 0.00155 0.0205 0.022
0.0015 0.0205 0.022 0.00155 0.021 0.022 0.0015 0.021 0.022 0.0016
0.001 0.022 0.0016 0.0015 0.022 0.0016 0.002 0.022 0.0016 0.0025
0.022 0.0016 0.003 0.022 0.0016 0.004 0.022 0.0016 0.0045 0.022
0.0016 0.005 0.022 0.0016 0.0055 0.022 0.0016 0.006 0.022 0.0016
0.007 0.022 0.0016 0.0075 0.022 0.0016 0.008 0.022 0.0016 0.0085
0.022 0.0016 0.009 0.022 0.0016 0.01 0.022 0.0016 0.0105 0.022
0.0016 0.011 0.022 0.0016 0.0115 0.022 0.0016 0.012 0.022 0.0016
0.013 0.022 0.0016 0.0135 0.022 0.0016 0.014 0.022 0.0016 0.0145
0.022 0.0016 0.015 0.022 0.0016 0.016 0.022 0.0016 0.0165 0.022
0.0016 0.017 0.022 0.0016 0.0175 0.022 0.0016 0.018 0.022 0.0016
0.019 0.022 0.0016 0.0195 0.022 0.0016 0.02 0.022 0.0016 0.0205
0.022 0.0016 0.021 0.022 0.00165 0.001 0.022 0.00165 0.0015 0.022
0.00165 0.002 0.022 0.00165 0.0025 0.022 0.00165 0.003 0.022 0.00165
0.004 0.022 0.00165 0.0045 0.022 0.00165 0.005 0.022 0.00165 0.0055
0.022 0.00165 0.006 0.022 0.00165 0.007 0.022 0.00165 0.0075 0.022
0.00165 0.008 0.022 0.00165 0.0085 0.022 0.00165 0.009 0.022 0.00165
0.01 0.022 0.00165 0.0105 0.022 0.00165 0.011 0.022 0.00165 0.0115
0.022 0.00165 0.012 0.022 0.00165 0.013 0.022 0.00165 0.0135 0.022
0.00165 0.014 0.022 0.00165 0.0145 0.022 0.00165 0.015 0.022 0.00165
0.016 0.022 0.00165 0.0165 0.022 0.00165 0.017 0.022 0.00165 0.0175
0.022 0.00165 0.018 0.022 0.00165 0.019 0.022 0.00165 0.0195 0.022
0.00165 0.02 0.022 0.00165 0.0205 0.022 0.00165 0.021 0.022 0.0017
0.001 0.022 0.0017 0.0015 0.022 0.0017 0.002 0.022 0.0017 0.0025
0.022 0.0017 0.003 0.022 0.0017 0.004 0.022 0.0017 0.0045 0.022
0.0017 0.005 0.022 0.0017 0.0055 0.022 0.0017 0.006 0.022 0.0017
0.007 0.022 0.0017 0.0075 0.022 0.0017 0.008 0.022 0.0017 0.0085
0.022 0.0017 0.009 0.022 0.0017 0.01 0.022 0.0017 0.0105 0.022
0.0017 0.011 0.022 0.0017 0.0115 0.022 0.0017 0.012 0.022 0.0017
0.013 0.022 0.0017 0.0135 0.022 0.0017 0.014 0.022 0.0017 0.0145
0.022 0.0017 0.015 0.022 0.0017 0.016 0.022 0.0017 0.0165 0.022
0.0017 0.017 0.022 0.0017 0.0175 0.022 0.0017 0.018 0.022 0.0017
0.019 0.022 0.0017 0.0195 0.022 0.0017 0.02 0.022 0.0017 0.0205
0.022 0.0017 0.021 0.022 0.00175 0.001 0.022 0.00175 0.0015 0.022
0.00175 0.002 0.022 0.00175 0.0025 0.022 0.00175 0.003 0.022 0.00175
0.004 0.022 0.00175 0.0045 0.022 0.00175 0.005 0.022 0.00175 0.0055
0.022 0.00175 0.006 0.022 0.00175 0.007 0.022 0.00175 0.0075 0.022
0.00175 0.008 0.022 0.00175 0.0085 0.022 0.00175 0.009 0.022 0.00175
0.01 0.022 0.00175 0.0105 0.022 0.00175 0.011 0.022 0.00175 0.0115
0.022 0.00175 0.012 0.022 0.00175 0.013 0.022 0.00175 0.0135 0.022
0.00175 0.014 0.022 0.00175 0.0145 0.022 0.00175 0.015 0.022 0.00175
0.016 0.022 0.00175 0.0165 0.022 0.00175 0.017 0.022 0.00175 0.0175
0.022 0.00175 0.018 0.022 0.00175 0.019 0.022 0.00175 0.0195 0.022
0.00175 0.02 0.022 0.00175 0.0205 0.022 0.00175 0.021 0.022 0.0018
0.001 0.022 0.0018 0.0015 0.022 0.0018 0.002 0.022 0.0018 0.0025
0.022 0.0018 0.003 0.022 0.0018 0.004 0.022 0.0018 0.0045 0.022
0.0018 0.005 0.022 0.0018 0.0055 0.022 0.0018 0.006 0.022 0.0018
0.007 0.022 0.0018 0.0075 0.022 0.0018 0.008 0.022 0.0018 0.0085
0.022 0.0018 0.009 0.022 0.0018 0.01 0.022 0.0018 0.0105 0.022
0.0018 0.011 0.022 0.0018 0.0115 0.022 0.0018 0.012 0.022 0.0018
0.013 0.022 0.0018 0.0135 0.022 0.0018 0.014 0.022 0.0018 0.0145
0.022 0.0018 0.015 0.022 0.0018 0.016 0.022 0.0018 0.0165 0.022
0.0018 0.017 0.022 0.0018 0.0175 0.022 0.0018 0.018 0.022 0.0018
0.019 0.022 0.0018 0.0195 0.022 0.0018 0.02 0.022 0.0018 0.0205
0.022 0.0018 0.021 0.022 0.00185 0.001 0.022 0.00185 0.0015 0.022
0.00185 0.002 0.022 0.00185 0.0025 0.022 0.00185 0.003 0.022 0.00185
0.004 0.022 0.00185 0.0045 0.022 0.00185 0.005 0.022 0.00185 0.0055
0.022 0.00185 0.006 0.022 0.00185 0.007 0.022 0.00185 0.0075 0.022
0.00185 0.008 0.022 0.00185 0.0085 0.022 0.00185 0.009 0.022 0.00185
0.01 0.022 0.00185 0.0105 0.022 0.00185 0.011 0.022 0.00185 0.0115
0.022 0.00185 0.012 0.022 0.00185 0.013 0.022 0.00185 0.0135 0.022
0.00185 0.014 0.022 0.00185 0.0145 0.022 0.00185 0.015 0.022 0.00185
0.016 0.022 0.00185 0.0165 0.022 0.00185 0.017 0.022 0.00185 0.0175
0.022 0.00185 0.018 0.022 0.00185 0.019 0.022 0.00185 0.0195 0.022
0.00185 0.02 0.022 0.00185 0.0205 0.022 0.00185 0.021 0.022 0.0019
0.001 0.022 0.0019 0.0015 0.022 0.0019 0.002 0.022 0.0019 0.0025
0.022 0.0019 0.003 0.022 0.0019 0.004 0.022 0.0019 0.0045 0.022
0.0019 0.005 0.022 0.0019 0.0055 0.022 0.0019 0.006 0.022 0.0019
0.007 0.022 0.0019 0.0075 0.022 0.0019 0.008 0.022 0.0019 0.0085
0.022 0.0019 0.009 0.022 0.0019 0.01 0.022 0.0019 0.0105 0.022
0.0019 0.011 0.022 0.0019 0.0115 0.022 0.0019 0.012 0.022 0.0019
0.013 0.022 0.0019 0.0135 0.022 0.0019 0.014 0.022 0.0019 0.0145
0.022 0.0019 0.015 0.022 0.0019 0.016 0.022 0.0019 0.0165 0.022
0.0019 0.017 0.022 0.0019 0.0175 0.022 0.0019 0.018 0.022 0.0019
0.019 0.022 0.0019 0.0195 0.022 0.0019 0.02 0.022 0.0019 0.0205
0.022 0.0019 0.021 0.022 0.00195 0.001 0.022 0.00195 0.0015 0.022
0.00195 0.002 0.022 0.00195 0.0025 0.022 0.00195 0.003 0.022 0.00195
0.004 0.022 0.00195 0.0045 0.022 0.00195 0.005 0.022 0.00195 0.0055
0.022 0.00195 0.006 0.022 0.00195 0.007 0.022 0.00195 0.0075 0.022
0.00195 0.008 0.022 0.00195 0.0085 0.022 0.00195 0.009 0.022 0.00195
0.01 0.022 0.00195 0.0105 0.022 0.00195 0.011 0.022 0.00195 0.0115
0.022 0.00195 0.012 0.022 0.00195 0.013 0.022 0.00195 0.0135 0.022
0.00195 0.014 0.022 0.00195 0.0145 0.022 0.00195 0.015 0.022 0.00195
0.016 0.022 0.00195 0.0165 0.022 0.00195 0.017 0.022 0.00195 0.0175
0.022 0.00195 0.018 0.022 0.00195 0.019 0.022 0.00195 0.0195 0.022
0.00195 0.02 0.022 0.00195 0.0205 0.022 0.00195 0.021 0.022 0.002
0.001 0.022 0.002 0.0015 0.022 0.002 0.002 0.022 0.002 0.0025
0.022 0.002 0.003 0.022 0.002 0.004 0.022 0.002 0.0045 0.022
0.002 0.005 0.022 0.002 0.0055 0.022 0.002 0.006 0.022 0.002
0.007 0.022 0.002 0.0075 0.022 0.002 0.008 0.022 0.002 0.0085
0.022 0.002 0.009 0.022 0.002 0.01 0.022 0.002 0.0105 0.022
0.002 0.011 0.022 0.002 0.0115 0.022 0.002 0.012 0.022 0.002
0.013 0.022 0.002 0.0135 0.022 0.002 0.014 0.022 0.002 0.0145
0.022 0.002 0.015 0.022 0.002 0.016 0.022 0.002 0.0165 0.022
0.002 0.017 0.022 0.002 0.0175 0.022 0.002 0.018 0.022 0.002
0.019 0.022 0.002 0.0195 0.022 0.002 0.02 0.022 0.002 0.0205
0.022 0.002 0.021 0.022 0.00205 0.001 0.022 0.00205 0.0015 0.022
0.00205 0.002 0.022 0.00205 0.0025 0.022 0.00205 0.003 0.022 0.00205
0.004 0.022 0.00205 0.0045 0.022 0.00205 0.005 0.022 0.00205 0.0055
0.022 0.00205 0.006 0.022 0.00205 0.007 0.022 0.00205 0.0075 0.022
0.00205 0.008 0.022 0.00205 0.0085 0.022 0.00205 0.009 0.022 0.00205
0.01 0.022 0.00205 0.0105 0.022 0.00205 0.011 0.022 0.00205 0.0115
0.022 0.00205 0.012 0.022 0.00205 0.013 0.022 0.00205 0.0135 0.022
0.00205 0.014 0.022 0.00205 0.0145 0.022 0.00205 0.015 0.022 0.00205
0.016 0.022 0.00205 0.0165 0.022 0.00205 0.017 0.022 0.00205 0.0175
0.022 0.00205 0.018 0.022 0.00205 0.019 0.022 0.00205 0.0195 0.022
0.00205 0.02 0.022 0.00205 0.0205 0.022 0.00205 0.021 0.022 0.0021
0.001 0.022 0.0021 0.0015 0.022 0.0021 0.002 0.022 0.0021 0.0025
0.022 0.0021 0.003 0.022 0.0021 0.004 0.022 0.0021 0.0045 0.022
0.0021 0.005 0.022 0.0021 0.0055 0.022 0.0021 0.006 0.022 0.0021
0.007 0.022 0.0021 0.0075 0.022 0.0021 0.008 0.022 0.0021 0.0085
0.022 0.0021 0.009 0.022 0.0021 0.01 0.022 0.0021 0.0105 0.022
0.0021 0.011 0.022 0.0021 0.0115 0.022 0.0021 0.012 0.022 0.0021
0.013 0.022 0.0021 0.0135 0.022 0.0021 0.014 0.022 0.0021 0.0145
0.022 0.0021 0.015 0.022 0.0021 0.016 0.022 0.0021 0.0165 0.022
0.0021 0.017 0.022 0.0021 0.0175 0.022 0.0021 0.018 0.022 0.0021
0.019 0.022 0.0021 0.0195 0.022 0.0021 0.02 0.022 0.0021 0.0205
0.022 0.0021 0.021 0.022 0.00215 0.001 0.022 0.00215 0.0015 0.022
0.00215 0.002 0.022 0.00215 0.0025 0.022 0.00215 0.003 0.022 0.00215
0.004 0.022 0.00215 0.0045 0.022 0.00215 0.005 0.022 0.00215 0.0055
0.022 0.00215 0.006 0.022 0.00215 0.007 0.022 0.00215 0.0075 0.022
0.00215 0.008 0.022 0.00215 0.0085 0.022 0.00215 0.009 0.022 0.00215
0.01 0.022 0.00215 0.0105 0.022 0.00215 0.011 0.022 0.00215 0.0115
0.022 0.00215 0.012 0.022 0.00215 0.013 0.022 0.00215 0.0135 0.022
0.00215 0.014 0.022 0.00215 0.0145 0.022 0.00215 0.015 0.022 0.00215
0.016 0.022 0.00215 0.0165 0.022 0.00215 0.017 0.022 0.00215 0.0175
0.022 0.00215 0.018 0.022 0.00215 0.019 0.022 0.00215 0.0195 0.022
0.00215 0.02 0.022 0.00215 0.0205 0.022 0.00215 0.021 0.022 0.0022
0.001 0.022 0.0022 0.0015 0.022 0.0022 0.002 0.022 0.0022 0.0025
0.022 0.0022 0.003 0.022 0.0022 0.004 0.022 0.0022 0.0045 0.022
0.0022 0.005 0.022 0.0022 0.0055 0.022 0.0022 0.006 0.022 0.0022
[...]
CELL_DATA 840
FIELD attributes 4
patchID 1 840 float
3 3 3 3 3 3 3 3 3 3 3
3 3 3 3 3 3 3 3 3 3
3 3 3 3 3 3 3 3 3 3
3 3 3 3 3 3 3 3 3 3
3 3 3 3 3 3 3 3 3 3
3 3 3 3 3 3 3 3 3 3
3 3 3 3 3 3 3 3 3 3
3 3 3 3 3 3 3 3 3 3
3 3 3 3 3 3 3 3 3 3
3 3 3 3 3 3 3 3 3 3
3 3 3 3 3 3 3 3 3 3
3 3 3 3 3 3 3 3 3 3
3 3 3 3 3 3 3 3 3 3
3 3 3 3 3 3 3 3 3 3
3 3 3 3 3 3 3 3 3 3
3 3 3 3 3 3 3 3 3 3
3 3 3 3 3 3 3 3 3 3
3 3 3 3 3 3 3 3 3 3
3 3 3 3 3 3 3 3 3 3
3 3 3 3 3 3 3 3 3 3
3 3 3 3 3 3 3 3 3 3
3 3 3 3 3 3 3 3 3 3
3 3 3 3 3 3 3 3 3 3
3 3 3 3 3 3 3 3 3 3
3 3 3 3 3 3 3 3 3 3
3 3 3 3 3 3 3 3 3 3
3 3 3 3 3 3 3 3 3 3
3 3 3 3 3 3 3 3 3 3
3 3 3 3 3 3 3 3 3 3
3 3 3 3 3 3 3 3 3 3
3 3 3 3 3 3 3 3 3 3
3 3 3 3 3 3 3 3 3 3
3 3 3 3 3 3 3 3 3 3
3 3 3 3 3 3 3 3 3 3
3 3 3 3 3 3 3 3 3 3
3 3 3 3 3 3 3 3 3 3
3 3 3 3 3 3 3 3 3 3
3 3 3 3 3 3 3 3 3 3
3 3 3 3 3 3 3 3 3 3
3 3 3 3 3 3 3 3 3 3
3 3 3 3 3 3 3 3 3 3
3 3 3 3 3 3 3 3 3 3
3 3 3 3 3 3 3 3 3 3
3 3 3 3 3 3 3 3 3 3
3 3 3 3 3 3 3 3 3 3
3 3 3 3 3 3 3 3 3 3
3 3 3 3 3 3 3 3 3 3
3 3 3 3 3 3 3 3 3 3
3 3 3 3 3 3 3 3 3 3
3 3 3 3 3 3 3 3 3 3
3 3 3 3 3 3 3 3 3 3
3 3 3 3 3 3 3 3 3 3
3 3 3 3 3 3 3 3 3 3
3 3 3 3 3 3 3 3 3 3
3 3 3 3 3 3 3 3 3 3
3 3 3 3 3 3 3 3 3 3
3 3 3 3 3 3 3 3 3 3
3 3 3 3 3 3 3 3 3 3
3 3 3 3 3 3 3 3 3 3
3 3 3 3 3 3 3 3 3 3
3 3 3 3 3 3 3 3 3 3
3 3 3 3 3 3 3 3 3 3
3 3 3 3 3 3 3 3 3 3
3 3 3 3 3 3 3 3 3 3
3 3 3 3 3 3 3 3 3 3
3 3 3 3 3 3 3 3 3 3
3 3 3 3 3 3 3 3 3 3
3 3 3 3 3 3 3 3 3 3
3 3 3 3 3 3 3 3 3 3
3 3 3 3 3 3 3 3 3 3
3 3 3 3 3 3 3 3 3 3
3 3 3 3 3 3 3 3 3 3
3 3 3 3 3 3 3 3 3 3
3 3 3 3 3 3 3 3 3 3
3 3 3 3 3 3 3 3 3 3
3 3 3 3 3 3 3 3 3 3
3 3 3 3 3 3 3 3 3 3
3 3 3 3 3 3 3 3 3 3
3 3 3 3 3 3 3 3 3 3
3 3 3 3 3 3 3 3 3 3
3 3 3 3 3 3 3 3 3 3
3 3 3 3 3 3 3 3 3 3
3 3 3 3 3 3 3 3 3 3
3 3 3 3 3 3 3 3 3 
T 1 840 float
353.118 353.114 353.114 353.116 353.116 353.113 353.112 353.115 353.113 353.11 353.11
353.113 353.113 353.11 353.11 353.113 353.113 353.111 353.111 353.113 353.115
353.112 353.112 353.116 353.116 353.115 353.115 353.118 353.086 353.078 353.079
353.084 353.086 353.078 353.077 353.084 353.082 353.076 353.075 353.081 353.082
353.077 353.076 353.082 353.082 353.076 353.076 353.082 353.084 353.077 353.077
353.085 353.084 353.079 353.079 353.086 353.065 353.054 353.055 353.063 353.065
353.054 353.053 353.063 353.062 353.052 353.052 353.061 353.061 353.054 353.053
353.062 353.061 353.052 353.053 353.062 353.064 353.053 353.054 353.065 353.063
353.055 353.055 353.065 353.051 353.037 353.038 353.049 353.051 353.038 353.037
353.049 353.049 353.037 353.036 353.048 353.048 353.038 353.037 353.048 353.048
353.036 353.037 353.048 353.049 353.037 353.038 353.051 353.049 353.038 353.038
353.051 353.041 353.026 353.027 353.04 353.041 353.026 353.026 353.04 353.04
353.026 353.026 353.039 353.039 353.026 353.026 353.039 353.039 353.025 353.026
353.039 353.04 353.026 353.026 353.041 353.04 353.027 353.026 353.041 353.035
353.018 353.019 353.034 353.034 353.018 353.018 353.034 353.034 353.018 353.018
353.033 353.033 353.018 353.018 353.033 353.033 353.018 353.018 353.033 353.034
353.018 353.018 353.034 353.034 353.019 353.018 353.035 353.031 353.013 353.013
353.03 353.03 353.013 353.013 353.03 353.03 353.013 353.013 353.029 353.029
353.013 353.013 353.029 353.029 353.013 353.013 353.03 353.03 353.013 353.013
353.03 353.03 353.013 353.013 353.031 353.029 353.01 353.01 353.028 353.028
353.009 353.009 353.027 353.027 353.01 353.009 353.027 353.027 353.009 353.009
353.027 353.027 353.009 353.01 353.027 353.027 353.009 353.009 353.028 353.028
353.01 353.01 353.029 353.027 353.008 353.008 353.027 353.026 353.008 353.008
353.026 353.026 353.008 353.008 353.026 353.026 353.008 353.008 353.026 353.026
353.008 353.008 353.026 353.026 353.008 353.008 353.026 353.027 353.008 353.008
353.027 353.027 353.007 353.007 353.027 353.026 353.007 353.007 353.026 353.026
353.007 353.007 353.026 353.026 353.007 353.007 353.026 353.026 353.007 353.007
353.026 353.026 353.007 353.007 353.026 353.027 353.007 353.007 353.027 353.028
353.007 353.008 353.028 353.027 353.007 353.007 353.027 353.027 353.007 353.007
353.027 353.027 353.007 353.007 353.027 353.027 353.007 353.007 353.027 353.027
353.007 353.007 353.027 353.028 353.008 353.007 353.028 353.03 353.008 353.009
353.03 353.029 353.008 353.008 353.029 353.029 353.008 353.008 353.029 353.029
353.008 353.008 353.029 353.029 353.008 353.008 353.029 353.029 353.008 353.007
353.029 353.03 353.009 353.008 353.03 353.033 353.01 353.01 353.033 353.031
353.009 353.01 353.032 353.032 353.009 353.009 353.031 353.032 353.009 353.009
353.032 353.032 353.009 353.009 353.032 353.032 353.01 353.009 353.031 353.033
353.01 353.01 353.033 353.036 353.013 353.013 353.037 353.034 353.012 353.013
353.036 353.035 353.012 353.012 353.035 353.035 353.012 353.012 353.035 353.035
353.012 353.012 353.035 353.036 353.013 353.012 353.034 353.038 353.013 353.014
353.036 353.041 353.018 353.017 353.043 353.039 353.016 353.017 353.041 353.04
353.015 353.016 353.04 353.04 353.016 353.016 353.04 353.04 353.016 353.016
353.04 353.041 353.017 353.016 353.038 353.043 353.017 353.018 353.041 353.047
353.023 353.023 353.049 353.044 353.021 353.022 353.047 353.045 353.02 353.021
353.045 353.046 353.021 353.021 353.046 353.045 353.021 353.02 353.045 353.047
353.022 353.021 353.044 353.049 353.023 353.023 353.047 353.054 353.03 353.03
353.056 353.05 353.027 353.029 353.054 353.052 353.026 353.027 353.052 353.053
353.027 353.027 353.053 353.052 353.027 353.026 353.052 353.054 353.029 353.027
353.05 353.056 353.03 353.031 353.054 353.063 353.039 353.038 353.065 353.058
353.035 353.037 353.063 353.059 353.034 353.035 353.06 353.061 353.035 353.035
353.061 353.06 353.035 353.034 353.06 353.063 353.037 353.035 353.058 353.065
353.038 353.039 353.063 353.073 353.05 353.048 353.076 353.067 353.045 353.048
353.073 353.068 353.043 353.044 353.07 353.07 353.045 353.044 353.07 353.07
353.044 353.043 353.069 353.073 353.048 353.045 353.067 353.076 353.048 353.05
353.072 353.084 353.062 353.06 353.087 353.077 353.056 353.06 353.084 353.079
353.054 353.056 353.08 353.081 353.056 353.056 353.081 353.08 353.056 353.054
353.079 353.084 353.06 353.056 353.077 353.087 353.06 353.062 353.083 353.096
353.076 353.074 353.1 353.089 353.069 353.074 353.097 353.09 353.067 353.069
353.092 353.093 353.069 353.069 353.093 353.092 353.069 353.067 353.09 353.097
353.074 353.07 353.089 353.1 353.074 353.076 353.096 353.109 353.092 353.089
353.113 353.102 353.084 353.089 353.11 353.102 353.081 353.084 353.105 353.106
353.084 353.084 353.106 353.105 353.084 353.081 353.103 353.11 353.089 353.084
353.102 353.113 353.089 353.091 353.109 353.123 353.108 353.106 353.127 353.115
353.1 353.106 353.124 353.116 353.097 353.1 353.118 353.119 353.1 353.1
353.119 353.118 353.1 353.097 353.116 353.124 353.106 353.101 353.115 353.127
353.106 353.108 353.123 353.138 353.125 353.124 353.141 353.129 353.118 353.124
353.138 353.129 353.114 353.118 353.132 353.133 353.118 353.117 353.133 353.133
353.118 353.114 353.13 353.138 353.124 353.118 353.129 353.141 353.124 353.125
353.138 353.152 353.143 353.142 353.155 353.143 353.135 353.142 353.152 353.143
353.132 353.136 353.146 353.147 353.135 353.135 353.147 353.146 353.136 353.132
353.143 353.152 353.142 353.136 353.143 353.155 353.142 353.143 353.151 353.164
353.16 353.16 353.168 353.157 353.153 353.16 353.165 353.156 353.149 353.154
353.159 353.16 353.153 353.153 353.16 353.159 353.154 353.149 353.157 353.165
353.16 353.153 353.157 353.168 353.16 353.16 353.164 353.176 353.176 353.177
353.179 353.169 353.169 353.176 353.176 353.169 353.166 353.17 353.171 353.171
353.169 353.169 353.171 353.171 353.17 353.166 353.169 353.176 353.176 353.17
353.169 353.179 353.177 353.175 353.176 353.185 353.189 353.191 353.188 353.18
353.184 353.19 353.185 353.179 353.182 353.185 353.181 353.181 353.184 353.184
353.181 353.181 353.185 353.182 353.179 353.185 353.19 353.184 353.18 353.188
353.191 353.189 353.185 353.191 353.2 353.203 353.194 353.189 353.197 353.201
353.191 353.187 353.194 353.197 353.189 353.188 353.196 353.196 353.188 353.189
353.197 353.194 353.187 353.191 353.201 353.197 353.189 353.194 353.203 353.2
353.191 353.196 353.209 353.211 353.198 353.194 353.206 353.209 353.196 353.193
353.204 353.206 353.194 353.193 353.205 353.205 353.193 353.194 353.206 353.204
353.193 353.196 353.209 353.206 353.194 353.198 353.211 353.209 353.196 
Tsource 1 840 float
0 0 0 0 0 0 0 0 0 0 0
0 0 0 0 0 0 0 0 0 0
0 0 0 0 0 0 0 0 0 0
0 0 0 0 0 0 0 0 0 0
0 0 0 0 0 0 0 0 0 0
0 0 0 0 0 0 0 0 0 0
0 0 0 0 0 0 0 0 0 0
0 0 0 0 0 0 0 0 0 0
0 0 0 0 0 0 0 0 0 0
0 0 0 0 0 0 0 0 0 0
0 0 0 0 0 0 0 0 0 0
0 0 0 0 0 0 0 0 0 0
0 0 0 0 0 0 0 0 0 0
0 0 0 0 0 0 0 0 0 0
0 0 0 0 0 0 0 0 0 0
0 0 0 0 0 0 0 0 0 0
0 0 0 0 0 0 0 0 0 0
0 0 0 0 0 0 0 0 0 0
0 0 0 0 0 0 0 0 0 0
0 0 0 0 0 0 0 0 0 0
0 0 0 0 0 0 0 0 0 0
0 0 0 0 0 0 0 0 0 0
0 0 0 0 0 0 0 0 0 0
0 0 0 0 0 0 0 0 0 0
0 0 0 0 0 0 0 0 0 0
0 0 0 0 0 0 0 0 0 0
0 0 0 0 0 0 0 0 0 0
0 0 0 0 0 0 0 0 0 0
0 0 0 0 0 0 0 0 0 0
0 0 0 0 0 0 0 0 0 0
0 0 0 0 0 0 0 0 0 0
0 0 0 0 0 0 0 0 0 0
0 0 0 0 0 0 0 0 0 0
0 0 0 0 0 0 0 0 0 0
0 0 0 0 0 0 0 0 0 0
0 0 0 0 0 0 0 0 0 0
0 0 0 0 0 0 0 0 0 0
0 0 0 0 0 0 0 0 0 0
0 0 0 0 0 0 0 0 0 0
0 0 0 0 0 0 0 0 0 0
0 0 0 0 0 0 0 0 0 0
0 0 0 0 0 0 0 0 0 0
0 0 0 0 0 0 0 0 0 0
0 0 0 0 0 0 0 0 0 0
0 0 0 0 0 0 0 0 0 0
0 0 0 0 0 0 0 0 0 0
0 0 0 0 0 0 0 0 0 0
0 0 0 0 0 0 0 0 0 0
0 0 0 0 0 0 0 0 0 0
0 0 0 0 0 0 0 0 0 0
0 0 0 0 0 0 0 0 0 0
0 0 0 0 0 0 0 0 0 0
0 0 0 0 0 0 0 0 0 0
0 0 0 0 0 0 0 0 0 0
0 0 0 0 0 0 0 0 0 0
0 0 0 0 0 0 0 0 0 0
0 0 0 0 0 0 0 0 0 0
0 0 0 0 0 0 0 0 0 0
0 0 0 0 0 0 0 0 0 0
0 0 0 0 0 0 0 0 0 0
0 0 0 0 0 0 0 0 0 0
0 0 0 0 0 0 0 0 0 0
0 0 0 0 0 0 0 0 0 0
0 0 0 0 0 0 0 0 0 0
0 0 0 0 0 0 0 0 0 0
0 0 0 0 0 0 0 0 0 0
0 0 0 0 0 0 0 0 0 0
0 0 0 0 0 0 0 0 0 0
0 0 0 0 0 0 0 0 0 0
0 0 0 0 0 0 0 0 0 0
0 0 0 0 0 0 0 0 0 0
0 0 0 0 0 0 0 0 0 0
0 0 0 0 0 0 0 0 0 0
0 0 0 0 0 0 0 0 0 0
0 0 0 0 0 0 0 0 0 0
0 0 0 0 0 0 0 0 0 0
0 0 0 0 0 0 0 0 0 0
0 0 0 0 0 0 0 0 0 0
0 0 0 0 0 0 0 0 0 0
0 0 0 0 0 0 0 0 0 0
0 0 0 0 0 0 0 0 0 0
0 0 0 0 0 0 0 0 0 0
0 0 0 0 0 0 0 0 0 0
0 0 0 0 0 0 0 0 0 
k 1 840 float
0.0291998 0.0291995 0.0291994 0.0291996 0.0291995 0.0291993 0.0291993 0.0291994 0.0291994 0.0291992 0.0291992
0.0291994 0.0291994 0.0291991 0.0291991 0.0291994 0.0291994 0.0291992 0.0291991 0.0291994 0.0291994
0.0291993 0.0291993 0.0291995 0.0291996 0.0291994 0.0291995 0.0291997 0.0291976 0.0291971 0.029197
0.0291975 0.0291973 0.0291969 0.0291969 0.0291972 0.0291972 0.0291968 0.0291968 0.0291973 0.0291972
0.0291967 0.0291967 0.0291972 0.0291972 0.0291968 0.0291968 0.0291972 0.0291972 0.0291969 0.029197
0.0291973 0.0291975 0.029197 0.029197 0.0291976 0.0291961 0.0291954 0.0291953 0.029196 0.0291959
0.0291953 0.0291953 0.0291958 0.0291958 0.0291952 0.0291952 0.0291959 0.0291958 0.0291951 0.0291951
0.0291958 0.0291958 0.0291952 0.0291952 0.0291958 0.0291958 0.0291953 0.0291953 0.0291959 0.029196
0.0291953 0.0291953 0.0291961 0.0291951 0.0291942 0.0291942 0.029195 0.0291949 0.0291941 0.0291942
0.0291949 0.0291948 0.0291941 0.0291941 0.0291949 0.0291949 0.029194 0.029194 0.0291948 0.0291949
0.0291941 0.0291941 0.0291949 0.0291949 0.0291942 0.0291942 0.0291949 0.029195 0.0291942 0.0291942
0.0291951 0.0291944 0.0291934 0.0291933 0.0291943 0.0291943 0.0291933 0.0291933 0.0291942 0.0291942
0.0291933 0.0291933 0.0291942 0.0291942 0.0291933 0.0291933 0.0291942 0.0291942 0.0291933 0.0291933
0.0291942 0.0291942 0.0291933 0.0291933 0.0291943 0.0291943 0.0291933 0.0291934 0.0291944 0.029194
0.0291928 0.0291928 0.0291939 0.0291939 0.0291928 0.0291928 0.0291938 0.0291938 0.0291928 0.0291928
0.0291938 0.0291938 0.0291927 0.0291927 0.0291938 0.0291938 0.0291928 0.0291927 0.0291938 0.0291938
0.0291928 0.0291928 0.0291939 0.0291939 0.0291928 0.0291928 0.029194 0.0291937 0.0291924 0.0291924
0.0291936 0.0291936 0.0291924 0.0291924 0.0291935 0.0291935 0.0291924 0.0291924 0.0291935 0.0291935
0.0291924 0.0291924 0.0291935 0.0291935 0.0291924 0.0291924 0.0291935 0.0291935 0.0291924 0.0291924
0.0291936 0.0291936 0.0291924 0.0291924 0.0291937 0.0291935 0.0291922 0.0291922 0.0291934 0.0291934
0.0291921 0.0291922 0.0291933 0.0291934 0.0291922 0.0291921 0.0291933 0.0291933 0.0291921 0.0291921
0.0291933 0.0291933 0.0291921 0.0291921 0.0291934 0.0291933 0.0291922 0.0291921 0.0291934 0.0291934
0.0291922 0.0291922 0.0291935 0.0291934 0.029192 0.029192 0.0291933 0.0291933 0.029192 0.029192
0.0291933 0.0291933 0.029192 0.029192 0.0291933 0.0291933 0.029192 0.029192 0.0291933 0.0291933
0.029192 0.029192 0.0291933 0.0291933 0.029192 0.029192 0.0291933 0.0291933 0.029192 0.029192
0.0291934 0.0291933 0.029192 0.029192 0.0291933 0.0291933 0.0291919 0.029192 0.0291933 0.0291933
0.0291919 0.0291919 0.0291933 0.0291932 0.0291919 0.0291919 0.0291933 0.0291932 0.0291919 0.0291919
0.0291933 0.0291933 0.029192 0.0291919 0.0291933 0.0291933 0.029192 0.029192 0.0291933 0.0291934
0.029192 0.029192 0.0291933 0.0291933 0.0291919 0.0291919 0.0291933 0.0291933 0.0291919 0.0291919
0.0291933 0.0291933 0.0291919 0.0291919 0.0291933 0.0291933 0.0291919 0.0291919 0.0291933 0.0291933
0.029192 0.0291919 0.0291933 0.0291933 0.029192 0.029192 0.0291934 0.0291934 0.029192 0.029192
0.0291934 0.0291933 0.029192 0.029192 0.0291934 0.0291934 0.029192 0.029192 0.0291934 0.0291934
0.029192 0.029192 0.0291934 0.0291934 0.029192 0.029192 0.0291934 0.0291934 0.029192 0.029192
0.0291934 0.0291934 0.029192 0.029192 0.0291934 0.0291936 0.0291921 0.0291921 0.0291936 0.0291935
0.029192 0.0291921 0.0291935 0.0291935 0.0291921 0.0291921 0.0291935 0.0291935 0.0291921 0.0291921
0.0291935 0.0291935 0.0291921 0.0291921 0.0291935 0.0291935 0.0291921 0.0291921 0.0291935 0.0291936
0.0291921 0.0291921 0.0291936 0.0291937 0.0291923 0.0291923 0.0291938 0.0291936 0.0291922 0.0291922
0.0291937 0.0291937 0.0291922 0.0291922 0.0291937 0.0291937 0.0291922 0.0291922 0.0291937 0.0291937
0.0291922 0.0291922 0.0291937 0.0291937 0.0291923 0.0291922 0.0291936 0.0291938 0.0291923 0.0291923
0.0291937 0.029194 0.0291925 0.0291925 0.029194 0.0291938 0.0291924 0.0291924 0.0291939 0.0291939
0.0291924 0.0291924 0.0291939 0.0291939 0.0291924 0.0291924 0.0291939 0.0291939 0.0291924 0.0291924
0.0291939 0.0291939 0.0291925 0.0291924 0.0291938 0.029194 0.0291925 0.0291925 0.0291939 0.0291942
0.0291928 0.0291928 0.0291943 0.0291941 0.0291927 0.0291927 0.0291942 0.0291942 0.0291927 0.0291927
0.0291942 0.0291942 0.0291927 0.0291927 0.0291942 0.0291941 0.0291927 0.0291927 0.0291942 0.0291942
0.0291927 0.0291927 0.0291941 0.0291943 0.0291927 0.0291928 0.0291942 0.0291945 0.0291932 0.0291931
0.0291946 0.0291944 0.029193 0.0291931 0.0291945 0.0291945 0.029193 0.029193 0.0291945 0.0291945
0.029193 0.029193 0.0291945 0.0291945 0.029193 0.029193 0.0291945 0.0291945 0.0291931 0.029193
0.0291944 0.0291946 0.0291931 0.0291932 0.0291945 0.0291949 0.0291937 0.0291936 0.029195 0.0291948
0.0291934 0.0291935 0.0291949 0.0291949 0.0291934 0.0291934 0.0291948 0.0291949 0.0291934 0.0291935
0.0291949 0.0291948 0.0291934 0.0291934 0.0291948 0.0291949 0.0291936 0.0291935 0.0291948 0.029195
0.0291936 0.0291937 0.0291949 0.0291953 0.0291942 0.0291941 0.0291955 0.0291952 0.029194 0.0291941
0.0291953 0.0291953 0.0291939 0.029194 0.0291953 0.0291953 0.029194 0.029194 0.0291953 0.0291953
0.029194 0.0291939 0.0291952 0.0291953 0.0291941 0.029194 0.0291952 0.0291955 0.0291941 0.0291942
0.0291953 0.0291958 0.0291949 0.0291947 0.0291959 0.0291956 0.0291946 0.0291947 0.0291958 0.0291957
0.0291945 0.0291946 0.0291957 0.0291957 0.0291946 0.0291946 0.0291957 0.0291957 0.0291946 0.0291945
0.0291957 0.0291958 0.0291947 0.0291946 0.0291956 0.0291959 0.0291947 0.0291949 0.0291958 0.0291962
0.0291956 0.0291954 0.0291964 0.0291961 0.0291953 0.0291954 0.0291963 0.0291962 0.0291951 0.0291952
0.0291962 0.0291962 0.0291952 0.0291952 0.0291962 0.0291962 0.0291952 0.0291952 0.0291962 0.0291963
0.0291954 0.0291953 0.0291961 0.0291964 0.0291954 0.0291956 0.0291962 0.0291967 0.0291963 0.0291961
0.0291969 0.0291966 0.029196 0.0291961 0.0291968 0.0291967 0.0291959 0.029196 0.0291967 0.0291967
0.029196 0.029196 0.0291967 0.0291967 0.029196 0.0291959 0.0291967 0.0291968 0.0291962 0.029196
0.0291966 0.0291969 0.0291961 0.0291963 0.0291967 0.0291971 0.0291971 0.0291969 0.0291974 0.0291971
0.0291968 0.0291969 0.0291972 0.0291972 0.0291966 0.0291968 0.0291972 0.0291972 0.0291967 0.0291968
0.0291972 0.0291972 0.0291968 0.0291966 0.0291972 0.0291972 0.0291969 0.0291968 0.0291972 0.0291973
0.0291969 0.0291971 0.0291971 0.0291974 0.0291978 0.0291977 0.0291977 0.0291976 0.0291976 0.0291977
0.0291976 0.0291977 0.0291974 0.0291976 0.0291976 0.0291976 0.0291975 0.0291975 0.0291976 0.0291976
0.0291976 0.0291974 0.0291976 0.0291976 0.0291977 0.0291976 0.0291976 0.0291977 0.0291977 0.0291978
0.0291974 0.0291977 0.0291985 0.0291984 0.029198 0.029198 0.0291984 0.0291984 0.0291978 0.029198
0.0291982 0.0291983 0.029198 0.0291979 0.0291983 0.0291983 0.0291979 0.029198 0.0291983 0.0291982
0.029198 0.0291978 0.0291984 0.0291983 0.029198 0.029198 0.0291984 0.0291985 0.0291977 0.0291977
0.0291991 0.029199 0.0291981 0.0291983 0.029199 0.029199 0.029198 0.0291983 0.0291989 0.029199
0.0291982 0.0291981 0.0291989 0.0291989 0.0291981 0.0291982 0.029199 0.0291989 0.0291983 0.029198
0.029199 0.029199 0.0291983 0.0291981 0.029199 0.0291991 0.0291977 0.0291976 0.0291995 0.0291995
0.0291981 0.0291985 0.0291995 0.0291994 0.0291979 0.0291984 0.0291995 0.0291995 0.0291983 0.0291981
0.0291994 0.0291994 0.0291981 0.0291983 0.0291995 0.0291995 0.0291984 0.0291979 0.0291994 0.0291995
0.0291985 0.0291981 0.0291995 0.0291995 0.0291976 0.0291973 0.0291997 0.0291997 0.0291979 0.0291985
0.0291999 0.0291996 0.0291977 0.0291984 0.0291998 0.0291998 0.0291982 0.0291979 0.0291997 0.0291997
0.0291979 0.0291982 0.0291998 0.0291998 0.0291984 0.0291977 0.0291996 0.0291999 0.0291985 0.0291979
0.0291997 0.0291997 0.0291973 0.0291969 0.0291997 0.0291997 0.0291976 0.0291983 0.0292 0.0291996
0.0291974 0.0291982 0.0292 0.0291999 0.0291979 0.0291975 0.0291998 0.0291998 0.0291976 0.0291979
0.0291999 0.0292 0.0291982 0.0291974 0.0291996 0.0292 0.0291983 0.0291975 0.0291997 0.0291997
0.0291969 0.0291963 0.0291995 0.0291995 0.0291971 0.0291979 0.0291999 0.0291993 0.0291969 0.0291978
0.0291999 0.0291997 0.0291975 0.0291971 0.0291996 0.0291996 0.0291971 0.0291975 0.0291997 0.0291999
0.0291978 0.0291969 0.0291993 0.0291999 0.0291979 0.0291971 0.0291995 0.0291995 0.0291963 
POINT_DATA  1085
FIELD attributes 3
T 1 1085 float
353.118 353.102 353.099 353.116 353.096 353.114 353.099 353.115 353.1 353.116 353.116
353.101 353.098 353.114 353.095 353.112 353.097 353.113 353.099 353.115 353.113
353.098 353.095 353.112 353.093 353.11 353.095 353.112 353.097 353.113 353.113
353.097 353.095 353.112 353.093 353.11 353.095 353.112 353.098 353.113 353.113
353.098 353.095 353.112 353.093 353.111 353.095 353.112 353.098 353.113 353.115
353.1 353.097 353.113 353.094 353.112 353.098 353.114 353.1 353.116 353.116
353.1 353.099 353.115 353.097 353.115 353.1 353.117 353.102 353.118 353.076
353.071 353.066 353.07 353.074 353.075 353.071 353.065 353.069 353.073 353.072
353.068 353.064 353.068 353.071 353.071 353.068 353.065 353.068 353.072 353.072
353.068 353.064 353.068 353.072 353.074 353.069 353.065 353.07 353.075 353.074
353.07 353.067 353.071 353.076 353.058 353.052 353.046 353.051 353.056 353.058
353.052 353.045 353.051 353.056 353.055 353.05 353.044 353.049 353.055 353.055
353.05 353.045 353.05 353.055 353.055 353.05 353.045 353.05 353.055 353.056
353.051 353.045 353.052 353.058 353.056 353.051 353.046 353.052 353.058 353.046
353.039 353.032 353.039 353.045 353.046 353.039 353.032 353.038 353.045 353.044
353.038 353.031 353.037 353.044 353.044 353.038 353.032 353.038 353.044 353.044
353.037 353.031 353.038 353.044 353.045 353.038 353.032 353.039 353.046 353.045
353.039 353.032 353.039 353.046 353.038 353.03 353.022 353.03 353.037 353.038
353.03 353.022 353.029 353.037 353.037 353.029 353.022 353.029 353.036 353.036