# vtk DataFile Version 2.0
electrolyteSides
ASCII
DATASET POLYDATA
POINTS 792 float
0.0034137 0 0 0.0034391 0 0 0.0034391 0 0.001 0.0034137 0
0.001 0.0034391 0 0.002 0.0034137 0 0.002 0.0034391 0 0.003
0.0034137 0 0.003 0.0034391 0 0.004 0.0034137 0 0.004 0.0034391
0 0.005 0.0034137 0 0.005 0.0034391 0 0.006 0.0034137 0
0.006 0.0034391 0 0.007 0.0034137 0 0.007 0.0034391 0 0.008
0.0034137 0 0.008 0.0034391 0 0.009 0.0034137 0 0.009 0.0034391
0 0.01 0.0034137 0 0.01 0.0034391 0 0.011 0.0034137 0
0.011 0.0034391 0 0.012 0.0034137 0 0.012 0.0034391 0 0.013
0.0034137 0 0.013 0.0034391 0 0.014 0.0034137 0 0.014 0.0034391
0 0.015 0.0034137 0 0.015 0.0034391 0 0.016 0.0034137 0
0.016 0.0034391 0 0.017 0.0034137 0 0.017 0.0034391 0 0.018
0.0034137 0 0.018 0.0034391 0 0.019 0.0034137 0 0.019 0.0034391
0 0.02 0.0034137 0 0.02 0.0034391 0 0.021 0.0034137 0
0.021 0.0034391 0 0.022 0.0034137 0 0.022 0.0034645 0 0
0.0034645 0 0.001 0.0034645 0 0.002 0.0034645 0 0.003 0.0034645
0 0.004 0.0034645 0 0.005 0.0034645 0 0.006 0.0034645 0
0.007 0.0034645 0 0.008 0.0034645 0 0.009 0.0034645 0 0.01
0.0034645 0 0.011 0.0034645 0 0.012 0.0034645 0 0.013 0.0034645
0 0.014 0.0034645 0 0.015 0.0034645 0 0.016 0.0034645 0
0.017 0.0034645 0 0.018 0.0034645 0 0.019 0.0034645 0 0.02
0.0034645 0 0.021 0.0034645 0 0.022 0.0034899 0 0 0.0034899
0 0.001 0.0034899 0 0.002 0.0034899 0 0.003 0.0034899 0
0.004 0.0034899 0 0.005 0.0034899 0 0.006 0.0034899 0 0.007
0.0034899 0 0.008 0.0034899 0 0.009 0.0034899 0 0.01 0.0034899
0 0.011 0.0034899 0 0.012 0.0034899 0 0.013 0.0034899 0
0.014 0.0034899 0 0.015 0.0034899 0 0.016 0.0034899 0 0.017
0.0034899 0 0.018 0.0034899 0 0.019 0.0034899 0 0.02 0.0034899
0 0.021 0.0034899 0 0.022 0.0035153 0 0 0.0035153 0
0.001 0.0035153 0 0.002 0.0035153 0 0.003 0.0035153 0 0.004
0.0035153 0 0.005 0.0035153 0 0.006 0.0035153 0 0.007 0.0035153
0 0.008 0.0035153 0 0.009 0.0035153 0 0.01 0.0035153 0
0.011 0.0035153 0 0.012 0.0035153 0 0.013 0.0035153 0 0.014
0.0035153 0 0.015 0.0035153 0 0.016 0.0035153 0 0.017 0.0035153
0 0.018 0.0035153 0 0.019 0.0035153 0 0.02 0.0035153 0
0.021 0.0035153 0 0.022 0.0035407 0 0 0.0035407 0 0.001
0.0035407 0 0.002 0.0035407 0 0.003 0.0035407 0 0.004 0.0035407
0 0.005 0.0035407 0 0.006 0.0035407 0 0.007 0.0035407 0
0.008 0.0035407 0 0.009 0.0035407 0 0.01 0.0035407 0 0.011
0.0035407 0 0.012 0.0035407 0 0.013 0.0035407 0 0.014 0.0035407
0 0.015 0.0035407 0 0.016 0.0035407 0 0.017 0.0035407 0
0.018 0.0035407 0 0.019 0.0035407 0 0.02 0.0035407 0 0.021
0.0035407 0 0.022 0.0034137 0.022 0 0.0034137 0.022 0.001 0.0034391
0.022 0.001 0.0034391 0.022 0 0.0034137 0.022 0.002 0.0034391 0.022
0.002 0.0034137 0.022 0.003 0.0034391 0.022 0.003 0.0034137 0.022 0.004
0.0034391 0.022 0.004 0.0034137 0.022 0.005 0.0034391 0.022 0.005 0.0034137
0.022 0.006 0.0034391 0.022 0.006 0.0034137 0.022 0.007 0.0034391 0.022
0.007 0.0034137 0.022 0.008 0.0034391 0.022 0.008 0.0034137 0.022 0.009
0.0034391 0.022 0.009 0.0034137 0.022 0.01 0.0034391 0.022 0.01 0.0034137
0.022 0.011 0.0034391 0.022 0.011 0.0034137 0.022 0.012 0.0034391 0.022
0.012 0.0034137 0.022 0.013 0.0034391 0.022 0.013 0.0034137 0.022 0.014
0.0034391 0.022 0.014 0.0034137 0.022 0.015 0.0034391 0.022 0.015 0.0034137
0.022 0.016 0.0034391 0.022 0.016 0.0034137 0.022 0.017 0.0034391 0.022
0.017 0.0034137 0.022 0.018 0.0034391 0.022 0.018 0.0034137 0.022 0.019
0.0034391 0.022 0.019 0.0034137 0.022 0.02 0.0034391 0.022 0.02 0.0034137
0.022 0.021 0.0034391 0.022 0.021 0.0034137 0.022 0.022 0.0034391 0.022
0.022 0.0034645 0.022 0.001 0.0034645 0.022 0 0.0034645 0.022 0.002
0.0034645 0.022 0.003 0.0034645 0.022 0.004 0.0034645 0.022 0.005 0.0034645
0.022 0.006 0.0034645 0.022 0.007 0.0034645 0.022 0.008 0.0034645 0.022
0.009 0.0034645 0.022 0.01 0.0034645 0.022 0.011 0.0034645 0.022 0.012
0.0034645 0.022 0.013 0.0034645 0.022 0.014 0.0034645 0.022 0.015 0.0034645
0.022 0.016 0.0034645 0.022 0.017 0.0034645 0.022 0.018 0.0034645 0.022
0.019 0.0034645 0.022 0.02 0.0034645 0.022 0.021 0.0034645 0.022 0.022
0.0034899 0.022 0.001 0.0034899 0.022 0 0.0034899 0.022 0.002 0.0034899
0.022 0.003 0.0034899 0.022 0.004 0.0034899 0.022 0.005 0.0034899 0.022
0.006 0.0034899 0.022 0.007 0.0034899 0.022 0.008 0.0034899 0.022 0.009
0.0034899 0.022 0.01 0.0034899 0.022 0.011 0.0034899 0.022 0.012 0.0034899
0.022 0.013 0.0034899 0.022 0.014 0.0034899 0.022 0.015 0.0034899 0.022
0.016 0.0034899 0.022 0.017 0.0034899 0.022 0.018 0.0034899 0.022 0.019
0.0034899 0.022 0.02 0.0034899 0.022 0.021 0.0034899 0.022 0.022 0.0035153
0.022 0.001 0.0035153 0.022 0 0.0035153 0.022 0.002 0.0035153 0.022
0.003 0.0035153 0.022 0.004 0.0035153 0.022 0.005 0.0035153 0.022 0.006
0.0035153 0.022 0.007 0.0035153 0.022 0.008 0.0035153 0.022 0.009 0.0035153
0.022 0.01 0.0035153 0.022 0.011 0.0035153 0.022 0.012 0.0035153 0.022
0.013 0.0035153 0.022 0.014 0.0035153 0.022 0.015 0.0035153 0.022 0.016
0.0035153 0.022 0.017 0.0035153 0.022 0.018 0.0035153 0.022 0.019 0.0035153
0.022 0.02 0.0035153 0.022 0.021 0.0035153 0.022 0.022 0.0035407 0.022
0.001 0.0035407 0.022 0 0.0035407 0.022 0.002 0.0035407 0.022 0.003
0.0035407 0.022 0.004 0.0035407 0.022 0.005 0.0035407 0.022 0.006 0.0035407
0.022 0.007 0.0035407 0.022 0.008 0.0035407 0.022 0.009 0.0035407 0.022
0.01 0.0035407 0.022 0.011 0.0035407 0.022 0.012 0.0035407 0.022 0.013
0.0035407 0.022 0.014 0.0035407 0.022 0.015 0.0035407 0.022 0.016 0.0035407
0.022 0.017 0.0035407 0.022 0.018 0.0035407 0.022 0.019 0.0035407 0.022
0.02 0.0035407 0.022 0.021 0.0035407 0.022 0.022 0.0034137 0.0005 0
0.0034391 0.0005 0 0.0034137 0.001 0 0.0034391 0.001 0 0.0034137
0.0015 0 0.0034391 0.0015 0 0.0034137 0.002 0 0.0034391 0.002
0 0.0034137 0.0025 0 0.0034391 0.0025 0 0.0034137 0.003 0
0.0034391 0.003 0 0.0034137 0.0035 0 0.0034391 0.0035 0 0.0034137
0.004 0 0.0034391 0.004 0 0.0034137 0.0045 0 0.0034391 0.0045
0 0.0034137 0.005 0 0.0034391 0.005 0 0.0034137 0.0055 0
0.0034391 0.0055 0 0.0034137 0.006 0 0.0034391 0.006 0 0.0034137
0.0065 0 0.0034391 0.0065 0 0.0034137 0.007 0 0.0034391 0.007
0 0.0034137 0.0075 0 0.0034391 0.0075 0 0.0034137 0.008 0
0.0034391 0.008 0 0.0034137 0.0085 0 0.0034391 0.0085 0 0.0034137
0.009 0 0.0034391 0.009 0 0.0034137 0.0095 0 0.0034391 0.0095
0 0.0034137 0.01 0 0.0034391 0.01 0 0.0034137 0.0105 0
0.0034391 0.0105 0 0.0034137 0.011 0 0.0034391 0.011 0 0.0034137
0.0115 0 0.0034391 0.0115 0 0.0034137 0.012 0 0.0034391 0.012
0 0.0034137 0.0125 0 0.0034391 0.0125 0 0.0034137 0.013 0
0.0034391 0.013 0 0.0034137 0.0135 0 0.0034391 0.0135 0 0.0034137
0.014 0 0.0034391 0.014 0 0.0034137 0.0145 0 0.0034391 0.0145
0 0.0034137 0.015 0 0.0034391 0.015 0 0.0034137 0.0155 0
0.0034391 0.0155 0 0.0034137 0.016 0 0.0034391 0.016 0 0.0034137
0.0165 0 0.0034391 0.0165 0 0.0034137 0.017 0 0.0034391 0.017
0 0.0034137 0.0175 0 0.0034391 0.0175 0 0.0034137 0.018 0
0.0034391 0.018 0 0.0034137 0.0185 0 0.0034391 0.0185 0 0.0034137
0.019 0 0.0034391 0.019 0 0.0034137 0.0195 0 0.0034391 0.0195
0 0.0034137 0.02 0 0.0034391 0.02 0 0.0034137 0.0205 0
0.0034391 0.0205 0 0.0034137 0.021 0 0.0034391 0.021 0 0.0034137
0.0215 0 0.0034391 0.0215 0 0.0034645 0.0005 0 0.0034645 0.001
0 0.0034645 0.0015 0 0.0034645 0.002 0 0.0034645 0.0025 0
0.0034645 0.003 0 0.0034645 0.0035 0 0.0034645 0.004 0 0.0034645
0.0045 0 0.0034645 0.005 0 0.0034645 0.0055 0 0.0034645 0.006
0 0.0034645 0.0065 0 0.0034645 0.007 0 0.0034645 0.0075 0
0.0034645 0.008 0 0.0034645 0.0085 0 0.0034645 0.009 0 0.0034645
0.0095 0 0.0034645 0.01 0 0.0034645 0.0105 0 0.0034645 0.011
0 0.0034645 0.0115 0 0.0034645 0.012 0 0.0034645 0.0125 0
0.0034645 0.013 0 0.0034645 0.0135 0 0.0034645 0.014 0 0.0034645
0.0145 0 0.0034645 0.015 0 0.0034645 0.0155 0 0.0034645 0.016
0 0.0034645 0.0165 0 0.0034645 0.017 0 0.0034645 0.0175 0
0.0034645 0.018 0 0.0034645 0.0185 0 0.0034645 0.019 0 0.0034645
0.0195 0 0.0034645 0.02 0 0.0034645 0.0205 0 0.0034645 0.021
0 0.0034645 0.0215 0 0.0034899 0.0005 0 0.0034899 0.001 0
0.0034899 0.0015 0 0.0034899 0.002 0 0.0034899 0.0025 0 0.0034899
0.003 0 0.0034899 0.0035 0 0.0034899 0.004 0 0.0034899 0.0045
0 0.0034899 0.005 0 0.0034899 0.0055 0 0.0034899 0.006 0
0.0034899 0.0065 0 0.0034899 0.007 0 0.0034899 0.0075 0 0.0034899
0.008 0 0.0034899 0.0085 0 0.0034899 0.009 0 0.0034899 0.0095
0 0.0034899 0.01 0 0.0034899 0.0105 0 0.0034899 0.011 0
0.0034899 0.0115 0 0.0034899 0.012 0 0.0034899 0.0125 0 0.0034899
0.013 0 0.0034899 0.0135 0 0.0034899 0.014 0 0.0034899 0.0145
0 0.0034899 0.015 0 0.0034899 0.0155 0 0.0034899 0.016 0
0.0034899 0.0165 0 0.0034899 0.017 0 0.0034899 0.0175 0 0.0034899
0.018 0 0.0034899 0.0185 0 0.0034899 0.019 0 0.0034899 0.0195
0 0.0034899 0.02 0 0.0034899 0.0205 0 0.0034899 0.021 0
0.0034899 0.0215 0 0.0035153 0.0005 0 0.0035153 0.001 0 0.0035153
0.0015 0 0.0035153 0.002 0 0.0035153 0.0025 0 0.0035153 0.003
0 0.0035153 0.0035 0 0.0035153 0.004 0 0.0035153 0.0045 0
0.0035153 0.005 0 0.0035153 0.0055 0 0.0035153 0.006 0 0.0035153
0.0065 0 0.0035153 0.007 0 0.0035153 0.0075 0 0.0035153 0.008
0 0.0035153 0.0085 0 0.0035153 0.009 0 0.0035153 0.0095 0
0.0035153 0.01 0 0.0035153 0.0105 0 0.0035153 0.011 0 0.0035153
0.0115 0 0.0035153 0.012 0 0.0035153 0.0125 0 0.0035153 0.013
0 0.0035153 0.0135 0 0.0035153 0.014 0 0.0035153 0.0145 0
0.0035153 0.015 0 0.0035153 0.0155 0 0.0035153 0.016 0 0.0035153
0.0165 0 0.0035153 0.017 0 0.0035153 0.0175 0 0.0035153 0.018
0 0.0035153 0.0185 0 0.0035153 0.019 0 0.0035153 0.0195 0
0.0035153 0.02 0 0.0035153 0.0205 0 0.0035153 0.021 0 0.0035153
0.0215 0 0.0035407 0.0005 0 0.0035407 0.001 0 0.0035407 0.0015
0 0.0035407 0.002 0 0.0035407 0.0025 0 0.0035407 0.003 0
0.0035407 0.0035 0 0.0035407 0.004 0 0.0035407 0.0045 0 0.0035407
0.005 0 0.0035407 0.0055 0 0.0035407 0.006 0 0.0035407 0.0065
0 0.0035407 0.007 0 0.0035407 0.0075 0 0.0035407 0.008 0
0.0035407 0.0085 0 0.0035407 0.009 0 0.0035407 0.0095 0 0.0035407
0.01 0 0.0035407 0.0105 0 0.0035407 0.011 0 0.0035407 0.0115
0 0.0035407 0.012 0 0.0035407 0.0125 0 0.0035407 0.013 0
[...]
CELL_DATA 660
FIELD attributes 16
patchID 1 660 float
0 0 0 0 0 0 0 0 0 0 0
0 0 0 0 0 0 0 0 0 0
0 0 0 0 0 0 0 0 0 0
0 0 0 0 0 0 0 0 0 0
0 0 0 0 0 0 0 0 0 0
0 0 0 0 0 0 0 0 0 0
0 0 0 0 0 0 0 0 0 0
0 0 0 0 0 0 0 0 0 0
0 0 0 0 0 0 0 0 0 0
0 0 0 0 0 0 0 0 0 0
0 0 0 0 0 0 0 0 0 0
0 0 0 0 0 0 0 0 0 0
0 0 0 0 0 0 0 0 0 0
0 0 0 0 0 0 0 0 0 0
0 0 0 0 0 0 0 0 0 0
0 0 0 0 0 0 0 0 0 0
0 0 0 0 0 0 0 0 0 0
0 0 0 0 0 0 0 0 0 0
0 0 0 0 0 0 0 0 0 0
0 0 0 0 0 0 0 0 0 0
0 0 0 0 0 0 0 0 0 0
0 0 0 0 0 0 0 0 0 0
0 0 0 0 0 0 0 0 0 0
0 0 0 0 0 0 0 0 0 0
0 0 0 0 0 0 0 0 0 0
0 0 0 0 0 0 0 0 0 0
0 0 0 0 0 0 0 0 0 0
0 0 0 0 0 0 0 0 0 0
0 0 0 0 0 0 0 0 0 0
0 0 0 0 0 0 0 0 0 0
0 0 0 0 0 0 0 0 0 0
0 0 0 0 0 0 0 0 0 0
0 0 0 0 0 0 0 0 0 0
0 0 0 0 0 0 0 0 0 0
0 0 0 0 0 0 0 0 0 0
0 0 0 0 0 0 0 0 0 0
0 0 0 0 0 0 0 0 0 0
0 0 0 0 0 0 0 0 0 0
0 0 0 0 0 0 0 0 0 0
0 0 0 0 0 0 0 0 0 0
0 0 0 0 0 0 0 0 0 0
0 0 0 0 0 0 0 0 0 0
0 0 0 0 0 0 0 0 0 0
0 0 0 0 0 0 0 0 0 0
0 0 0 0 0 0 0 0 0 0
0 0 0 0 0 0 0 0 0 0
0 0 0 0 0 0 0 0 0 0
0 0 0 0 0 0 0 0 0 0
0 0 0 0 0 0 0 0 0 0
0 0 0 0 0 0 0 0 0 0
0 0 0 0 0 0 0 0 0 0
0 0 0 0 0 0 0 0 0 0
0 0 0 0 0 0 0 0 0 0
0 0 0 0 0 0 0 0 0 0
0 0 0 0 0 0 0 0 0 0
0 0 0 0 0 0 0 0 0 0
0 0 0 0 0 0 0 0 0 0
0 0 0 0 0 0 0 0 0 0
0 0 0 0 0 0 0 0 0 0
0 0 0 0 0 0 0 0 0 0
0 0 0 0 0 0 0 0 0 0
0 0 0 0 0 0 0 0 0 0
0 0 0 0 0 0 0 0 0 0
0 0 0 0 0 0 0 0 0 0
0 0 0 0 0 0 0 0 0 0
0 0 0 0 0 0 0 0 0 
electrochemicalHeating 1 660 float
1.03366e+06 1.03612e+06 1.03958e+06 1.03976e+06 1.03717e+06 1.03605e+06 1.03187e+06 1.02964e+06 1.02771e+06 1.0261e+06 1.02595e+06
1.022e+06 1.02045e+06 1.01914e+06 1.01797e+06 1.01882e+06 1.01575e+06 1.01455e+06 1.01334e+06 1.01203e+06 1.01288e+06
1.01039e+06 1.03366e+06 1.03612e+06 1.03958e+06 1.03976e+06 1.03717e+06 1.03605e+06 1.03187e+06 1.02964e+06 1.02771e+06
1.0261e+06 1.02595e+06 1.022e+06 1.02045e+06 1.01914e+06 1.01797e+06 1.01882e+06 1.01575e+06 1.01455e+06 1.01334e+06
1.01203e+06 1.01288e+06 1.01039e+06 1.03366e+06 1.03612e+06 1.03958e+06 1.03976e+06 1.03717e+06 1.03605e+06 1.03187e+06
1.02964e+06 1.02771e+06 1.0261e+06 1.02595e+06 1.022e+06 1.02045e+06 1.01914e+06 1.01797e+06 1.01882e+06 1.01575e+06
1.01455e+06 1.01334e+06 1.01203e+06 1.01288e+06 1.01039e+06 1.03366e+06 1.03612e+06 1.03958e+06 1.03976e+06 1.03717e+06
1.03605e+06 1.03187e+06 1.02964e+06 1.02771e+06 1.0261e+06 1.02595e+06 1.022e+06 1.02045e+06 1.01914e+06 1.01797e+06
1.01882e+06 1.01575e+06 1.01455e+06 1.01334e+06 1.01203e+06 1.01288e+06 1.01039e+06 1.03366e+06 1.03612e+06 1.03958e+06
1.03976e+06 1.03717e+06 1.03605e+06 1.03187e+06 1.02964e+06 1.02771e+06 1.0261e+06 1.02595e+06 1.022e+06 1.02045e+06
1.01914e+06 1.01797e+06 1.01882e+06 1.01575e+06 1.01455e+06 1.01334e+06 1.01203e+06 1.01288e+06 1.01039e+06 1.03249e+06
1.03587e+06 1.03937e+06 1.04003e+06 1.03836e+06 1.03397e+06 1.0316e+06 1.02956e+06 1.02785e+06 1.02805e+06 1.02345e+06
1.02177e+06 1.0203e+06 1.01907e+06 1.02016e+06 1.01674e+06 1.01559e+06 1.01437e+06 1.01315e+06 1.01378e+06 1.01105e+06
1.0105e+06 1.03249e+06 1.03587e+06 1.03937e+06 1.04003e+06 1.03836e+06 1.03397e+06 1.0316e+06 1.02956e+06 1.02785e+06
1.02805e+06 1.02345e+06 1.02177e+06 1.0203e+06 1.01907e+06 1.02016e+06 1.01674e+06 1.01559e+06 1.01437e+06 1.01315e+06
1.01378e+06 1.01105e+06 1.0105e+06 1.03249e+06 1.03587e+06 1.03937e+06 1.04003e+06 1.03836e+06 1.03397e+06 1.0316e+06
1.02956e+06 1.02785e+06 1.02805e+06 1.02345e+06 1.02177e+06 1.0203e+06 1.01907e+06 1.02016e+06 1.01674e+06 1.01559e+06
1.01437e+06 1.01315e+06 1.01378e+06 1.01105e+06 1.0105e+06 1.03249e+06 1.03587e+06 1.03937e+06 1.04003e+06 1.03836e+06
1.03397e+06 1.0316e+06 1.02956e+06 1.02785e+06 1.02805e+06 1.02345e+06 1.02177e+06 1.0203e+06 1.01907e+06 1.02016e+06
1.01674e+06 1.01559e+06 1.01437e+06 1.01315e+06 1.01378e+06 1.01105e+06 1.0105e+06 1.03249e+06 1.03587e+06 1.03937e+06
1.04003e+06 1.03836e+06 1.03397e+06 1.0316e+06 1.02956e+06 1.02785e+06 1.02805e+06 1.02345e+06 1.02177e+06 1.0203e+06
1.01907e+06 1.02016e+06 1.01674e+06 1.01559e+06 1.01437e+06 1.01315e+06 1.01378e+06 1.01105e+06 1.0105e+06 1.03366e+06
1.03138e+06 1.02864e+06 1.02825e+06 1.03031e+06 1.03101e+06 1.03447e+06 1.03464e+06 1.03183e+06 1.03632e+06 1.0363e+06
1.0339e+06 1.03642e+06 1.03578e+06 1.03284e+06 1.0367e+06 1.03631e+06 1.03334e+06 1.03599e+06 1.03568e+06 1.03259e+06
1.0361e+06 1.03613e+06 1.03277e+06 1.03552e+06 1.03586e+06 1.03313e+06 1.03623e+06 1.03678e+06 1.03266e+06 1.03603e+06
1.03638e+06 1.03376e+06 1.03626e+06 1.03602e+06 1.03167e+06 1.03438e+06 1.03396e+06 1.03045e+06 1.02994e+06 1.02743e+06
1.02798e+06 1.03058e+06 1.03249e+06 1.03366e+06 1.03138e+06 1.02864e+06 1.02825e+06 1.03031e+06 1.03101e+06 1.03447e+06
1.03464e+06 1.03183e+06 1.03632e+06 1.0363e+06 1.0339e+06 1.03642e+06 1.03578e+06 1.03284e+06 1.0367e+06 1.03631e+06
1.03334e+06 1.03599e+06 1.03568e+06 1.03259e+06 1.0361e+06 1.03613e+06 1.03277e+06 1.03552e+06 1.03586e+06 1.03313e+06
1.03623e+06 1.03678e+06 1.03266e+06 1.03603e+06 1.03638e+06 1.03376e+06 1.03626e+06 1.03602e+06 1.03167e+06 1.03438e+06
1.03396e+06 1.03045e+06 1.02994e+06 1.02743e+06 1.02798e+06 1.03058e+06 1.03249e+06 1.03366e+06 1.03138e+06 1.02864e+06
1.02825e+06 1.03031e+06 1.03101e+06 1.03447e+06 1.03464e+06 1.03183e+06 1.03632e+06 1.0363e+06 1.0339e+06 1.03642e+06
1.03578e+06 1.03284e+06 1.0367e+06 1.03631e+06 1.03334e+06 1.03599e+06 1.03568e+06 1.03259e+06 1.0361e+06 1.03613e+06
1.03277e+06 1.03552e+06 1.03586e+06 1.03313e+06 1.03623e+06 1.03678e+06 1.03266e+06 1.03603e+06 1.03638e+06 1.03376e+06
1.03626e+06 1.03602e+06 1.03167e+06 1.03438e+06 1.03396e+06 1.03045e+06 1.02994e+06 1.02743e+06 1.02798e+06 1.03058e+06
1.03249e+06 1.03366e+06 1.03138e+06 1.02864e+06 1.02825e+06 1.03031e+06 1.03101e+06 1.03447e+06 1.03464e+06 1.03183e+06
1.03632e+06 1.0363e+06 1.0339e+06 1.03642e+06 1.03578e+06 1.03284e+06 1.0367e+06 1.03631e+06 1.03334e+06 1.03599e+06
1.03568e+06 1.03259e+06 1.0361e+06 1.03613e+06 1.03277e+06 1.03552e+06 1.03586e+06 1.03313e+06 1.03623e+06 1.03678e+06
1.03266e+06 1.03603e+06 1.03638e+06 1.03376e+06 1.03626e+06 1.03602e+06 1.03167e+06 1.03438e+06 1.03396e+06 1.03045e+06
1.02994e+06 1.02743e+06 1.02798e+06 1.03058e+06 1.03249e+06 1.03366e+06 1.03138e+06 1.02864e+06 1.02825e+06 1.03031e+06
1.03101e+06 1.03447e+06 1.03464e+06 1.03183e+06 1.03632e+06 1.0363e+06 1.0339e+06 1.03642e+06 1.03578e+06 1.03284e+06
1.0367e+06 1.03631e+06 1.03334e+06 1.03599e+06 1.03568e+06 1.03259e+06 1.0361e+06 1.03613e+06 1.03277e+06 1.03552e+06
1.03586e+06 1.03313e+06 1.03623e+06 1.03678e+06 1.03266e+06 1.03603e+06 1.03638e+06 1.03376e+06 1.03626e+06 1.03602e+06
1.03167e+06 1.03438e+06 1.03396e+06 1.03045e+06 1.02994e+06 1.02743e+06 1.02798e+06 1.03058e+06 1.03249e+06 1.01039e+06
1.01071e+06 1.00849e+06 1.00823e+06 1.00805e+06 1.00961e+06 1.01332e+06 1.01336e+06 1.0096e+06 1.00814e+06 1.00759e+06
1.00972e+06 1.0143e+06 1.01405e+06 1.0107e+06 1.00932e+06 1.01019e+06 1.01122e+06 1.01467e+06 1.01475e+06 1.01108e+06
1.00926e+06 1.00907e+06 1.01063e+06 1.01447e+06 1.01469e+06 1.0103e+06 1.00916e+06 1.00916e+06 1.01039e+06 1.01386e+06
1.01411e+06 1.00967e+06 1.0077e+06 1.008e+06 1.00937e+06 1.0132e+06 1.01329e+06 1.00972e+06 1.00802e+06 1.00792e+06
1.00823e+06 1.01063e+06 1.0105e+06 1.01039e+06 1.01071e+06 1.00849e+06 1.00823e+06 1.00805e+06 1.00961e+06 1.01332e+06
1.01336e+06 1.0096e+06 1.00814e+06 1.00759e+06 1.00972e+06 1.0143e+06 1.01405e+06 1.0107e+06 1.00932e+06 1.01019e+06
1.01122e+06 1.01467e+06 1.01475e+06 1.01108e+06 1.00926e+06 1.00907e+06 1.01063e+06 1.01447e+06 1.01469e+06 1.0103e+06
1.00916e+06 1.00916e+06 1.01039e+06 1.01386e+06 1.01411e+06 1.00967e+06 1.0077e+06 1.008e+06 1.00937e+06 1.0132e+06
1.01329e+06 1.00972e+06 1.00802e+06 1.00792e+06 1.00823e+06 1.01063e+06 1.0105e+06 1.01039e+06 1.01071e+06 1.00849e+06
1.00823e+06 1.00805e+06 1.00961e+06 1.01332e+06 1.01336e+06 1.0096e+06 1.00814e+06 1.00759e+06 1.00972e+06 1.0143e+06
1.01405e+06 1.0107e+06 1.00932e+06 1.01019e+06 1.01122e+06 1.01467e+06 1.01475e+06 1.01108e+06 1.00926e+06 1.00907e+06
1.01063e+06 1.01447e+06 1.01469e+06 1.0103e+06 1.00916e+06 1.00916e+06 1.01039e+06 1.01386e+06 1.01411e+06 1.00967e+06
1.0077e+06 1.008e+06 1.00937e+06 1.0132e+06 1.01329e+06 1.00972e+06 1.00802e+06 1.00792e+06 1.00823e+06 1.01063e+06
1.0105e+06 1.01039e+06 1.01071e+06 1.00849e+06 1.00823e+06 1.00805e+06 1.00961e+06 1.01332e+06 1.01336e+06 1.0096e+06
1.00814e+06 1.00759e+06 1.00972e+06 1.0143e+06 1.01405e+06 1.0107e+06 1.00932e+06 1.01019e+06 1.01122e+06 1.01467e+06
1.01475e+06 1.01108e+06 1.00926e+06 1.00907e+06 1.01063e+06 1.01447e+06 1.01469e+06 1.0103e+06 1.00916e+06 1.00916e+06
1.01039e+06 1.01386e+06 1.01411e+06 1.00967e+06 1.0077e+06 1.008e+06 1.00937e+06 1.0132e+06 1.01329e+06 1.00972e+06
1.00802e+06 1.00792e+06 1.00823e+06 1.01063e+06 1.0105e+06 1.01039e+06 1.01071e+06 1.00849e+06 1.00823e+06 1.00805e+06
1.00961e+06 1.01332e+06 1.01336e+06 1.0096e+06 1.00814e+06 1.00759e+06 1.00972e+06 1.0143e+06 1.01405e+06 1.0107e+06
1.00932e+06 1.01019e+06 1.01122e+06 1.01467e+06 1.01475e+06 1.01108e+06 1.00926e+06 1.00907e+06 1.01063e+06 1.01447e+06
1.01469e+06 1.0103e+06 1.00916e+06 1.00916e+06 1.01039e+06 1.01386e+06 1.01411e+06 1.00967e+06 1.0077e+06 1.008e+06
1.00937e+06 1.0132e+06 1.01329e+06 1.00972e+06 1.00802e+06 1.00792e+06 1.00823e+06 1.01063e+06 1.0105e+06 
concMe 1 660 float
28.7595 28.7669 28.7773 28.7789 28.774 28.7696 28.765 28.7605 28.756 28.7515 28.7472
28.7431 28.7392 28.7356 28.7319 28.7281 28.7245 28.7207 28.7169 28.7127 28.7087
28.7057 28.7595 28.7669 28.7773 28.7789 28.774 28.7696 28.765 28.7605 28.756
28.7515 28.7472 28.7431 28.7392 28.7356 28.7319 28.7281 28.7245 28.7207 28.7169
28.7127 28.7087 28.7057 28.7595 28.7669 28.7773 28.7789 28.774 28.7696 28.765
28.7605 28.756 28.7515 28.7472 28.7431 28.7392 28.7356 28.7319 28.7281 28.7245
28.7207 28.7169 28.7127 28.7087 28.7057 28.7595 28.7669 28.7773 28.7789 28.774
28.7696 28.765 28.7605 28.756 28.7515 28.7472 28.7431 28.7392 28.7356 28.7319
28.7281 28.7245 28.7207 28.7169 28.7127 28.7087 28.7057 28.7595 28.7669 28.7773
28.7789 28.774 28.7696 28.765 28.7605 28.756 28.7515 28.7472 28.7431 28.7392
28.7356 28.7319 28.7281 28.7245 28.7207 28.7169 28.7127 28.7087 28.7057 28.7595
28.7669 28.7773 28.7789 28.774 28.7696 28.765 28.7605 28.756 28.7515 28.7472
28.7431 28.7392 28.7356 28.7318 28.7282 28.7245 28.7207 28.7169 28.7126 28.7087
28.7058 28.7595 28.7669 28.7773 28.7789 28.774 28.7696 28.765 28.7605 28.756
28.7515 28.7472 28.7431 28.7392 28.7356 28.7318 28.7282 28.7245 28.7207 28.7169
28.7126 28.7087 28.7058 28.7595 28.7669 28.7773 28.7789 28.774 28.7696 28.765
28.7605 28.756 28.7515 28.7472 28.7431 28.7392 28.7356 28.7318 28.7282 28.7245
28.7207 28.7169 28.7126 28.7087 28.7058 28.7595 28.7669 28.7773 28.7789 28.774
28.7696 28.765 28.7605 28.756 28.7515 28.7472 28.7431 28.7392 28.7356 28.7318
28.7282 28.7245 28.7207 28.7169 28.7126 28.7087 28.7058 28.7595 28.7669 28.7773
28.7789 28.774 28.7696 28.765 28.7605 28.756 28.7515 28.7472 28.7431 28.7392
28.7356 28.7318 28.7282 28.7245 28.7207 28.7169 28.7126 28.7087 28.7058 28.7595
28.7549 28.7495 28.7488 28.7532 28.7539 28.7605 28.7609 28.756 28.7651 28.7659
28.7606 28.7651 28.7643 28.7592 28.7678 28.767 28.7607 28.7653 28.765 28.7603
28.7673 28.7672 28.7602 28.765 28.7653 28.7607 28.767 28.7677 28.7593 28.7643
28.7651 28.7606 28.7659 28.7651 28.756 28.7609 28.7606 28.754 28.7532 28.7489
28.7495 28.7549 28.7595 28.7595 28.7549 28.7495 28.7488 28.7532 28.7539 28.7605
28.7609 28.756 28.7651 28.7659 28.7606 28.7651 28.7643 28.7592 28.7678 28.767
28.7607 28.7653 28.765 28.7603 28.7673 28.7672 28.7602 28.765 28.7653 28.7607
28.767 28.7677 28.7593 28.7643 28.7651 28.7606 28.7659 28.7651 28.756 28.7609
28.7606 28.754 28.7532 28.7489 28.7495 28.7549 28.7595 28.7595 28.7549 28.7495
28.7488 28.7532 28.7539 28.7605 28.7609 28.756 28.7651 28.7659 28.7606 28.7651
28.7643 28.7592 28.7678 28.767 28.7607 28.7653 28.765 28.7603 28.7673 28.7672
28.7602 28.765 28.7653 28.7607 28.767 28.7677 28.7593 28.7643 28.7651 28.7606
28.7659 28.7651 28.756 28.7609 28.7606 28.754 28.7532 28.7489 28.7495 28.7549
28.7595 28.7595 28.7549 28.7495 28.7488 28.7532 28.7539 28.7605 28.7609 28.756
28.7651 28.7659 28.7606 28.7651 28.7643 28.7592 28.7678 28.767 28.7607 28.7653
28.765 28.7603 28.7673 28.7672 28.7602 28.765 28.7653 28.7607 28.767 28.7677
28.7593 28.7643 28.7651 28.7606 28.7659 28.7651 28.756 28.7609 28.7606 28.754
28.7532 28.7489 28.7495 28.7549 28.7595 28.7595 28.7549 28.7495 28.7488 28.7532
28.7539 28.7605 28.7609 28.756 28.7651 28.7659 28.7606 28.7651 28.7643 28.7592
28.7678 28.767 28.7607 28.7653 28.765 28.7603 28.7673 28.7672 28.7602 28.765
28.7653 28.7607 28.767 28.7677 28.7593 28.7643 28.7651 28.7606 28.7659 28.7651
28.756 28.7609 28.7606 28.754 28.7532 28.7489 28.7495 28.7549 28.7595 28.7057
28.7068 28.6992 28.6998 28.7 28.7046 28.7156 28.7154 28.7037 28.6997 28.6983
28.7039 28.7176 28.7167 28.7064 28.703 28.7024 28.705 28.7152 28.715 28.7036
28.6992 28.6991 28.7035 28.715 28.7154 28.7052 28.7025 28.703 28.7064 28.7167
28.7177 28.704 28.6985 28.6998 28.7038 28.7154 28.7155 28.7044 28.6999 28.6999
28.6993 28.7069 28.7058 28.7057 28.7068 28.6992 28.6998 28.7 28.7046 28.7156
28.7154 28.7037 28.6997 28.6983 28.7039 28.7176 28.7167 28.7064 28.703 28.7024
28.705 28.7152 28.715 28.7036 28.6992 28.6991 28.7035 28.715 28.7154 28.7052
28.7025 28.703 28.7064 28.7167 28.7177 28.704 28.6985 28.6998 28.7038 28.7154
28.7155 28.7044 28.6999 28.6999 28.6993 28.7069 28.7058 28.7057 28.7068 28.6992
28.6998 28.7 28.7046 28.7156 28.7154 28.7037 28.6997 28.6983 28.7039 28.7176
28.7167 28.7064 28.703 28.7024 28.705 28.7152 28.715 28.7036 28.6992 28.6991
28.7035 28.715 28.7154 28.7052 28.7025 28.703 28.7064 28.7167 28.7177 28.704
28.6985 28.6998 28.7038 28.7154 28.7155 28.7044 28.6999 28.6999 28.6993 28.7069
28.7058 28.7057 28.7068 28.6992 28.6998 28.7 28.7046 28.7156 28.7154 28.7037
28.6997 28.6983 28.7039 28.7176 28.7167 28.7064 28.703 28.7024 28.705 28.7152
28.715 28.7036 28.6992 28.6991 28.7035 28.715 28.7154 28.7052 28.7025 28.703
28.7064 28.7167 28.7177 28.704 28.6985 28.6998 28.7038 28.7154 28.7155 28.7044
28.6999 28.6999 28.6993 28.7069 28.7058 28.7057 28.7068 28.6992 28.6998 28.7
28.7046 28.7156 28.7154 28.7037 28.6997 28.6983 28.7039 28.7176 28.7167 28.7064
28.703 28.7024 28.705 28.7152 28.715 28.7036 28.6992 28.6991 28.7035 28.715
28.7154 28.7052 28.7025 28.703 28.7064 28.7167 28.7177 28.704 28.6985 28.6998
28.7038 28.7154 28.7155 28.7044 28.6999 28.6999 28.6993 28.7069 28.7058 
iLC 1 660 float
41241.8 41253.9 41308.3 41344 41333 41306.8 41285.8 41263.8 41241.4 41218.5 41195.9
41174.8 41154.5 41134.9 41115.5 41095.3 41075.1 41053.3 41030.8 41005.1 40975.9
40949.1 41241.8 41253.9 41308.3 41344 41333 41306.8 41285.8 41263.8 41241.4
41218.5 41195.9 41174.8 41154.5 41134.9 41115.5 41095.3 41075.1 41053.3 41030.8
41005.1 40975.9 40949.1 41241.8 41253.9 41308.3 41344 41333 41306.8 41285.8
41263.8 41241.4 41218.5 41195.9 41174.8 41154.5 41134.9 41115.5 41095.3 41075.1
41053.3 41030.8 41005.1 40975.9 40949.1 41241.8 41253.9 41308.3 41344 41333
41306.8 41285.8 41263.8 41241.4 41218.5 41195.9 41174.8 41154.5 41134.9 41115.5
41095.3 41075.1 41053.3 41030.8 41005.1 40975.9 40949.1 41241.8 41253.9 41308.3
41344 41333 41306.8 41285.8 41263.8 41241.4 41218.5 41195.9 41174.8 41154.5
41134.9 41115.5 41095.3 41075.1 41053.3 41030.8 41005.1 40975.9 40949.1 41242
41253.9 41308.4 41344 41332.8 41307.2 41285.9 41263.9 41241.4 41218.1 41196.3
41175 41154.6 41135 41115.2 41095.6 41075.3 41053.5 41030.9 41004.9 40976.4
40949.5 41242 41253.9 41308.4 41344 41332.8 41307.2 41285.9 41263.9 41241.4
41218.1 41196.3 41175 41154.6 41135 41115.2 41095.6 41075.3 41053.5 41030.9
41004.9 40976.4 40949.5 41242 41253.9 41308.4 41344 41332.8 41307.2 41285.9
41263.9 41241.4 41218.1 41196.3 41175 41154.6 41135 41115.2 41095.6 41075.3
41053.5 41030.9 41004.9 40976.4 40949.5 41242 41253.9 41308.4 41344 41332.8
41307.2 41285.9 41263.9 41241.4 41218.1 41196.3 41175 41154.6 41135 41115.2
41095.6 41075.3 41053.5 41030.9 41004.9 40976.4 40949.5 41242 41253.9 41308.4
41344 41332.8 41307.2 41285.9 41263.9 41241.4 41218.1 41196.3 41175 41154.6
41135 41115.2 41095.6 41075.3 41053.5 41030.9 41004.9 40976.4 40949.5 41241.8
41220.4 41187 41163.3 41174.9 41172.1 41209.7 41207.8 41201.3 41215.5 41224
41214.8 41230.4 41227.8 41217.8 41235.2 41235.8 41223.1 41234.4 41236 41224.7
41238.9 41238.1 41224.3 41235.7 41234.8 41223.6 41236.7 41235.4 41217.4 41227.5
41230.2 41214.6 41223.1 41215.1 41201.4 41208 41209.7 41172.2 41175.2 41163.6
41187.2 41220.6 41242 41241.8 41220.4 41187 41163.3 41174.9 41172.1 41209.7
41207.8 41201.3 41215.5 41224 41214.8 41230.4 41227.8 41217.8 41235.2 41235.8
41223.1 41234.4 41236 41224.7 41238.9 41238.1 41224.3 41235.7 41234.8 41223.6
41236.7 41235.4 41217.4 41227.5 41230.2 41214.6 41223.1 41215.1 41201.4 41208
41209.7 41172.2 41175.2 41163.6 41187.2 41220.6 41242 41241.8 41220.4 41187
41163.3 41174.9 41172.1 41209.7 41207.8 41201.3 41215.5 41224 41214.8 41230.4
41227.8 41217.8 41235.2 41235.8 41223.1 41234.4 41236 41224.7 41238.9 41238.1
41224.3 41235.7 41234.8 41223.6 41236.7 41235.4 41217.4 41227.5 41230.2 41214.6
41223.1 41215.1 41201.4 41208 41209.7 41172.2 41175.2 41163.6 41187.2 41220.6
41242 41241.8 41220.4 41187 41163.3 41174.9 41172.1 41209.7 41207.8 41201.3
41215.5 41224 41214.8 41230.4 41227.8 41217.8 41235.2 41235.8 41223.1 41234.4
41236 41224.7 41238.9 41238.1 41224.3 41235.7 41234.8 41223.6 41236.7 41235.4
41217.4 41227.5 41230.2 41214.6 41223.1 41215.1 41201.4 41208 41209.7 41172.2
41175.2 41163.6 41187.2 41220.6 41242 41241.8 41220.4 41187 41163.3 41174.9
41172.1 41209.7 41207.8 41201.3 41215.5 41224 41214.8 41230.4 41227.8 41217.8
41235.2 41235.8 41223.1 41234.4 41236 41224.7 41238.9 41238.1 41224.3 41235.7
41234.8 41223.6 41236.7 41235.4 41217.4 41227.5 41230.2 41214.6 41223.1 41215.1
41201.4 41208 41209.7 41172.2 41175.2 41163.6 41187.2 41220.6 41242 40949.1
40961.3 40946.6 40982 40983.3 40986.7 41035.2 41030 40991.6 40988.9 40976.7
40976.9 41026.9 41026.5 40997 41003.9 40993.6 40977.9 41009.2 41009 40979.8
40997.9 40998.3 40980.3 41009.5 41009.9 40977.5 40993 41002.4 40995.4 41025.6
41026.3 40977.3 40977.2 40989.3 40992.5 41030.4 41035.3 40986.4 40983.3 40982.6
40947.1 40961.7 40949.5 40949.1 40961.3 40946.6 40982 40983.3 40986.7 41035.2
41030 40991.6 40988.9 40976.7 40976.9 41026.9 41026.5 40997 41003.9 40993.6
40977.9 41009.2 41009 40979.8 40997.9 40998.3 40980.3 41009.5 41009.9 40977.5
40993 41002.4 40995.4 41025.6 41026.3 40977.3 40977.2 40989.3 40992.5 41030.4
41035.3 40986.4 40983.3 40982.6 40947.1 40961.7 40949.5 40949.1 40961.3 40946.6
40982 40983.3 40986.7 41035.2 41030 40991.6 40988.9 40976.7 40976.9 41026.9
41026.5 40997 41003.9 40993.6 40977.9 41009.2 41009 40979.8 40997.9 40998.3
40980.3 41009.5 41009.9 40977.5 40993 41002.4 40995.4 41025.6 41026.3 40977.3
40977.2 40989.3 40992.5 41030.4 41035.3 40986.4 40983.3 40982.6 40947.1 40961.7
40949.5 40949.1 40961.3 40946.6 40982 40983.3 40986.7 41035.2 41030 40991.6
40988.9 40976.7 40976.9 41026.9 41026.5 40997 41003.9 40993.6 40977.9 41009.2
41009 40979.8 40997.9 40998.3 40980.3 41009.5 41009.9 40977.5 40993 41002.4
40995.4 41025.6 41026.3 40977.3 40977.2 40989.3 40992.5 41030.4 41035.3 40986.4
40983.3 40982.6 40947.1 40961.7 40949.5 40949.1 40961.3 40946.6 40982 40983.3
40986.7 41035.2 41030 40991.6 40988.9 40976.7 40976.9 41026.9 41026.5 40997
41003.9 40993.6 40977.9 41009.2 41009 40979.8 40997.9 40998.3 40980.3 41009.5
41009.9 40977.5 40993 41002.4 40995.4 41025.6 41026.3 40977.3 40977.2 40989.3
40992.5 41030.4 41035.3 40986.4 40983.3 40982.6 40947.1 40961.7 40949.5 
I 1 660 float
1629.58 1632.59 1637.05 1637.22 1633.85 1632.49 1626.16 1623.07 1620.47 1618.4 1618.66
1612.55 1610.42 1608.66 1607.11 1608.92 1604.18 1602.59 1600.98 1599.25 1601.14
1597.31 1629.58 1632.59 1637.05 1637.22 1633.85 1632.49 1626.16 1623.07 1620.47
1618.4 1618.66 1612.55 1610.42 1608.66 1607.11 1608.92 1604.18 1602.59 1600.98
1599.25 1601.14 1597.31 1629.58 1632.59 1637.05 1637.22 1633.85 1632.49 1626.16