# vtk DataFile Version 2.0
electrolyteSides
ASCII
DATASET POLYDATA
POINTS 792 float
0.0034137 0 0 0.0034391 0 0 0.0034391 0 0.001 0.0034137 0
0.001 0.0034391 0 0.002 0.0034137 0 0.002 0.0034391 0 0.003
0.0034137 0 0.003 0.0034391 0 0.004 0.0034137 0 0.004 0.0034391
0 0.005 0.0034137 0 0.005 0.0034391 0 0.006 0.0034137 0
0.006 0.0034391 0 0.007 0.0034137 0 0.007 0.0034391 0 0.008
0.0034137 0 0.008 0.0034391 0 0.009 0.0034137 0 0.009 0.0034391
0 0.01 0.0034137 0 0.01 0.0034391 0 0.011 0.0034137 0
0.011 0.0034391 0 0.012 0.0034137 0 0.012 0.0034391 0 0.013
0.0034137 0 0.013 0.0034391 0 0.014 0.0034137 0 0.014 0.0034391
0 0.015 0.0034137 0 0.015 0.0034391 0 0.016 0.0034137 0
0.016 0.0034391 0 0.017 0.0034137 0 0.017 0.0034391 0 0.018
0.0034137 0 0.018 0.0034391 0 0.019 0.0034137 0 0.019 0.0034391
0 0.02 0.0034137 0 0.02 0.0034391 0 0.021 0.0034137 0
0.021 0.0034391 0 0.022 0.0034137 0 0.022 0.0034645 0 0
0.0034645 0 0.001 0.0034645 0 0.002 0.0034645 0 0.003 0.0034645
0 0.004 0.0034645 0 0.005 0.0034645 0 0.006 0.0034645 0
0.007 0.0034645 0 0.008 0.0034645 0 0.009 0.0034645 0 0.01
0.0034645 0 0.011 0.0034645 0 0.012 0.0034645 0 0.013 0.0034645
0 0.014 0.0034645 0 0.015 0.0034645 0 0.016 0.0034645 0
0.017 0.0034645 0 0.018 0.0034645 0 0.019 0.0034645 0 0.02
0.0034645 0 0.021 0.0034645 0 0.022 0.0034899 0 0 0.0034899
0 0.001 0.0034899 0 0.002 0.0034899 0 0.003 0.0034899 0
0.004 0.0034899 0 0.005 0.0034899 0 0.006 0.0034899 0 0.007
0.0034899 0 0.008 0.0034899 0 0.009 0.0034899 0 0.01 0.0034899
0 0.011 0.0034899 0 0.012 0.0034899 0 0.013 0.0034899 0
0.014 0.0034899 0 0.015 0.0034899 0 0.016 0.0034899 0 0.017
0.0034899 0 0.018 0.0034899 0 0.019 0.0034899 0 0.02 0.0034899
0 0.021 0.0034899 0 0.022 0.0035153 0 0 0.0035153 0
0.001 0.0035153 0 0.002 0.0035153 0 0.003 0.0035153 0 0.004
0.0035153 0 0.005 0.0035153 0 0.006 0.0035153 0 0.007 0.0035153
0 0.008 0.0035153 0 0.009 0.0035153 0 0.01 0.0035153 0
0.011 0.0035153 0 0.012 0.0035153 0 0.013 0.0035153 0 0.014
0.0035153 0 0.015 0.0035153 0 0.016 0.0035153 0 0.017 0.0035153
0 0.018 0.0035153 0 0.019 0.0035153 0 0.02 0.0035153 0
0.021 0.0035153 0 0.022 0.0035407 0 0 0.0035407 0 0.001
0.0035407 0 0.002 0.0035407 0 0.003 0.0035407 0 0.004 0.0035407
0 0.005 0.0035407 0 0.006 0.0035407 0 0.007 0.0035407 0
0.008 0.0035407 0 0.009 0.0035407 0 0.01 0.0035407 0 0.011
0.0035407 0 0.012 0.0035407 0 0.013 0.0035407 0 0.014 0.0035407
0 0.015 0.0035407 0 0.016 0.0035407 0 0.017 0.0035407 0
0.018 0.0035407 0 0.019 0.0035407 0 0.02 0.0035407 0 0.021
0.0035407 0 0.022 0.0034137 0.022 0 0.0034137 0.022 0.001 0.0034391
0.022 0.001 0.0034391 0.022 0 0.0034137 0.022 0.002 0.0034391 0.022
0.002 0.0034137 0.022 0.003 0.0034391 0.022 0.003 0.0034137 0.022 0.004
0.0034391 0.022 0.004 0.0034137 0.022 0.005 0.0034391 0.022 0.005 0.0034137
0.022 0.006 0.0034391 0.022 0.006 0.0034137 0.022 0.007 0.0034391 0.022
0.007 0.0034137 0.022 0.008 0.0034391 0.022 0.008 0.0034137 0.022 0.009
0.0034391 0.022 0.009 0.0034137 0.022 0.01 0.0034391 0.022 0.01 0.0034137
0.022 0.011 0.0034391 0.022 0.011 0.0034137 0.022 0.012 0.0034391 0.022
0.012 0.0034137 0.022 0.013 0.0034391 0.022 0.013 0.0034137 0.022 0.014
0.0034391 0.022 0.014 0.0034137 0.022 0.015 0.0034391 0.022 0.015 0.0034137
0.022 0.016 0.0034391 0.022 0.016 0.0034137 0.022 0.017 0.0034391 0.022
0.017 0.0034137 0.022 0.018 0.0034391 0.022 0.018 0.0034137 0.022 0.019
0.0034391 0.022 0.019 0.0034137 0.022 0.02 0.0034391 0.022 0.02 0.0034137
0.022 0.021 0.0034391 0.022 0.021 0.0034137 0.022 0.022 0.0034391 0.022
0.022 0.0034645 0.022 0.001 0.0034645 0.022 0 0.0034645 0.022 0.002
0.0034645 0.022 0.003 0.0034645 0.022 0.004 0.0034645 0.022 0.005 0.0034645
0.022 0.006 0.0034645 0.022 0.007 0.0034645 0.022 0.008 0.0034645 0.022
0.009 0.0034645 0.022 0.01 0.0034645 0.022 0.011 0.0034645 0.022 0.012
0.0034645 0.022 0.013 0.0034645 0.022 0.014 0.0034645 0.022 0.015 0.0034645
0.022 0.016 0.0034645 0.022 0.017 0.0034645 0.022 0.018 0.0034645 0.022
0.019 0.0034645 0.022 0.02 0.0034645 0.022 0.021 0.0034645 0.022 0.022
0.0034899 0.022 0.001 0.0034899 0.022 0 0.0034899 0.022 0.002 0.0034899
0.022 0.003 0.0034899 0.022 0.004 0.0034899 0.022 0.005 0.0034899 0.022
0.006 0.0034899 0.022 0.007 0.0034899 0.022 0.008 0.0034899 0.022 0.009
0.0034899 0.022 0.01 0.0034899 0.022 0.011 0.0034899 0.022 0.012 0.0034899
0.022 0.013 0.0034899 0.022 0.014 0.0034899 0.022 0.015 0.0034899 0.022
0.016 0.0034899 0.022 0.017 0.0034899 0.022 0.018 0.0034899 0.022 0.019
0.0034899 0.022 0.02 0.0034899 0.022 0.021 0.0034899 0.022 0.022 0.0035153
0.022 0.001 0.0035153 0.022 0 0.0035153 0.022 0.002 0.0035153 0.022
0.003 0.0035153 0.022 0.004 0.0035153 0.022 0.005 0.0035153 0.022 0.006
0.0035153 0.022 0.007 0.0035153 0.022 0.008 0.0035153 0.022 0.009 0.0035153
0.022 0.01 0.0035153 0.022 0.011 0.0035153 0.022 0.012 0.0035153 0.022
0.013 0.0035153 0.022 0.014 0.0035153 0.022 0.015 0.0035153 0.022 0.016
0.0035153 0.022 0.017 0.0035153 0.022 0.018 0.0035153 0.022 0.019 0.0035153
0.022 0.02 0.0035153 0.022 0.021 0.0035153 0.022 0.022 0.0035407 0.022
0.001 0.0035407 0.022 0 0.0035407 0.022 0.002 0.0035407 0.022 0.003
0.0035407 0.022 0.004 0.0035407 0.022 0.005 0.0035407 0.022 0.006 0.0035407
0.022 0.007 0.0035407 0.022 0.008 0.0035407 0.022 0.009 0.0035407 0.022
0.01 0.0035407 0.022 0.011 0.0035407 0.022 0.012 0.0035407 0.022 0.013
0.0035407 0.022 0.014 0.0035407 0.022 0.015 0.0035407 0.022 0.016 0.0035407
0.022 0.017 0.0035407 0.022 0.018 0.0035407 0.022 0.019 0.0035407 0.022
0.02 0.0035407 0.022 0.021 0.0035407 0.022 0.022 0.0034137 0.0005 0
0.0034391 0.0005 0 0.0034137 0.001 0 0.0034391 0.001 0 0.0034137
0.0015 0 0.0034391 0.0015 0 0.0034137 0.002 0 0.0034391 0.002
0 0.0034137 0.0025 0 0.0034391 0.0025 0 0.0034137 0.003 0
0.0034391 0.003 0 0.0034137 0.0035 0 0.0034391 0.0035 0 0.0034137
0.004 0 0.0034391 0.004 0 0.0034137 0.0045 0 0.0034391 0.0045
0 0.0034137 0.005 0 0.0034391 0.005 0 0.0034137 0.0055 0
0.0034391 0.0055 0 0.0034137 0.006 0 0.0034391 0.006 0 0.0034137
0.0065 0 0.0034391 0.0065 0 0.0034137 0.007 0 0.0034391 0.007
0 0.0034137 0.0075 0 0.0034391 0.0075 0 0.0034137 0.008 0
0.0034391 0.008 0 0.0034137 0.0085 0 0.0034391 0.0085 0 0.0034137
0.009 0 0.0034391 0.009 0 0.0034137 0.0095 0 0.0034391 0.0095
0 0.0034137 0.01 0 0.0034391 0.01 0 0.0034137 0.0105 0
0.0034391 0.0105 0 0.0034137 0.011 0 0.0034391 0.011 0 0.0034137
0.0115 0 0.0034391 0.0115 0 0.0034137 0.012 0 0.0034391 0.012
0 0.0034137 0.0125 0 0.0034391 0.0125 0 0.0034137 0.013 0
0.0034391 0.013 0 0.0034137 0.0135 0 0.0034391 0.0135 0 0.0034137
0.014 0 0.0034391 0.014 0 0.0034137 0.0145 0 0.0034391 0.0145
0 0.0034137 0.015 0 0.0034391 0.015 0 0.0034137 0.0155 0
0.0034391 0.0155 0 0.0034137 0.016 0 0.0034391 0.016 0 0.0034137
0.0165 0 0.0034391 0.0165 0 0.0034137 0.017 0 0.0034391 0.017
0 0.0034137 0.0175 0 0.0034391 0.0175 0 0.0034137 0.018 0
0.0034391 0.018 0 0.0034137 0.0185 0 0.0034391 0.0185 0 0.0034137
0.019 0 0.0034391 0.019 0 0.0034137 0.0195 0 0.0034391 0.0195
0 0.0034137 0.02 0 0.0034391 0.02 0 0.0034137 0.0205 0
0.0034391 0.0205 0 0.0034137 0.021 0 0.0034391 0.021 0 0.0034137
0.0215 0 0.0034391 0.0215 0 0.0034645 0.0005 0 0.0034645 0.001
0 0.0034645 0.0015 0 0.0034645 0.002 0 0.0034645 0.0025 0
0.0034645 0.003 0 0.0034645 0.0035 0 0.0034645 0.004 0 0.0034645
0.0045 0 0.0034645 0.005 0 0.0034645 0.0055 0 0.0034645 0.006
0 0.0034645 0.0065 0 0.0034645 0.007 0 0.0034645 0.0075 0
0.0034645 0.008 0 0.0034645 0.0085 0 0.0034645 0.009 0 0.0034645
0.0095 0 0.0034645 0.01 0 0.0034645 0.0105 0 0.0034645 0.011
0 0.0034645 0.0115 0 0.0034645 0.012 0 0.0034645 0.0125 0
0.0034645 0.013 0 0.0034645 0.0135 0 0.0034645 0.014 0 0.0034645
0.0145 0 0.0034645 0.015 0 0.0034645 0.0155 0 0.0034645 0.016
0 0.0034645 0.0165 0 0.0034645 0.017 0 0.0034645 0.0175 0
0.0034645 0.018 0 0.0034645 0.0185 0 0.0034645 0.019 0 0.0034645
0.0195 0 0.0034645 0.02 0 0.0034645 0.0205 0 0.0034645 0.021
0 0.0034645 0.0215 0 0.0034899 0.0005 0 0.0034899 0.001 0
0.0034899 0.0015 0 0.0034899 0.002 0 0.0034899 0.0025 0 0.0034899
0.003 0 0.0034899 0.0035 0 0.0034899 0.004 0 0.0034899 0.0045
0 0.0034899 0.005 0 0.0034899 0.0055 0 0.0034899 0.006 0
0.0034899 0.0065 0 0.0034899 0.007 0 0.0034899 0.0075 0 0.0034899
0.008 0 0.0034899 0.0085 0 0.0034899 0.009 0 0.0034899 0.0095
0 0.0034899 0.01 0 0.0034899 0.0105 0 0.0034899 0.011 0
0.0034899 0.0115 0 0.0034899 0.012 0 0.0034899 0.0125 0 0.0034899
0.013 0 0.0034899 0.0135 0 0.0034899 0.014 0 0.0034899 0.0145
0 0.0034899 0.015 0 0.0034899 0.0155 0 0.0034899 0.016 0
0.0034899 0.0165 0 0.0034899 0.017 0 0.0034899 0.0175 0 0.0034899
0.018 0 0.0034899 0.0185 0 0.0034899 0.019 0 0.0034899 0.0195
0 0.0034899 0.02 0 0.0034899 0.0205 0 0.0034899 0.021 0
0.0034899 0.0215 0 0.0035153 0.0005 0 0.0035153 0.001 0 0.0035153
0.0015 0 0.0035153 0.002 0 0.0035153 0.0025 0 0.0035153 0.003
0 0.0035153 0.0035 0 0.0035153 0.004 0 0.0035153 0.0045 0
0.0035153 0.005 0 0.0035153 0.0055 0 0.0035153 0.006 0 0.0035153
0.0065 0 0.0035153 0.007 0 0.0035153 0.0075 0 0.0035153 0.008
0 0.0035153 0.0085 0 0.0035153 0.009 0 0.0035153 0.0095 0
0.0035153 0.01 0 0.0035153 0.0105 0 0.0035153 0.011 0 0.0035153
0.0115 0 0.0035153 0.012 0 0.0035153 0.0125 0 0.0035153 0.013
0 0.0035153 0.0135 0 0.0035153 0.014 0 0.0035153 0.0145 0
0.0035153 0.015 0 0.0035153 0.0155 0 0.0035153 0.016 0 0.0035153
0.0165 0 0.0035153 0.017 0 0.0035153 0.0175 0 0.0035153 0.018
0 0.0035153 0.0185 0 0.0035153 0.019 0 0.0035153 0.0195 0
0.0035153 0.02 0 0.0035153 0.0205 0 0.0035153 0.021 0 0.0035153
0.0215 0 0.0035407 0.0005 0 0.0035407 0.001 0 0.0035407 0.0015
0 0.0035407 0.002 0 0.0035407 0.0025 0 0.0035407 0.003 0
0.0035407 0.0035 0 0.0035407 0.004 0 0.0035407 0.0045 0 0.0035407
0.005 0 0.0035407 0.0055 0 0.0035407 0.006 0 0.0035407 0.0065
0 0.0035407 0.007 0 0.0035407 0.0075 0 0.0035407 0.008 0
0.0035407 0.0085 0 0.0035407 0.009 0 0.0035407 0.0095 0 0.0035407
0.01 0 0.0035407 0.0105 0 0.0035407 0.011 0 0.0035407 0.0115
0 0.0035407 0.012 0 0.0035407 0.0125 0 0.0035407 0.013 0
[...]
CELL_DATA 660
FIELD attributes 16
patchID 1 660 float
0 0 0 0 0 0 0 0 0 0 0
0 0 0 0 0 0 0 0 0 0
0 0 0 0 0 0 0 0 0 0
0 0 0 0 0 0 0 0 0 0
0 0 0 0 0 0 0 0 0 0
0 0 0 0 0 0 0 0 0 0
0 0 0 0 0 0 0 0 0 0
0 0 0 0 0 0 0 0 0 0
0 0 0 0 0 0 0 0 0 0
0 0 0 0 0 0 0 0 0 0
0 0 0 0 0 0 0 0 0 0
0 0 0 0 0 0 0 0 0 0
0 0 0 0 0 0 0 0 0 0
0 0 0 0 0 0 0 0 0 0
0 0 0 0 0 0 0 0 0 0
0 0 0 0 0 0 0 0 0 0
0 0 0 0 0 0 0 0 0 0
0 0 0 0 0 0 0 0 0 0
0 0 0 0 0 0 0 0 0 0
0 0 0 0 0 0 0 0 0 0
0 0 0 0 0 0 0 0 0 0
0 0 0 0 0 0 0 0 0 0
0 0 0 0 0 0 0 0 0 0
0 0 0 0 0 0 0 0 0 0
0 0 0 0 0 0 0 0 0 0
0 0 0 0 0 0 0 0 0 0
0 0 0 0 0 0 0 0 0 0
0 0 0 0 0 0 0 0 0 0
0 0 0 0 0 0 0 0 0 0
0 0 0 0 0 0 0 0 0 0
0 0 0 0 0 0 0 0 0 0
0 0 0 0 0 0 0 0 0 0
0 0 0 0 0 0 0 0 0 0
0 0 0 0 0 0 0 0 0 0
0 0 0 0 0 0 0 0 0 0
0 0 0 0 0 0 0 0 0 0
0 0 0 0 0 0 0 0 0 0
0 0 0 0 0 0 0 0 0 0
0 0 0 0 0 0 0 0 0 0
0 0 0 0 0 0 0 0 0 0
0 0 0 0 0 0 0 0 0 0
0 0 0 0 0 0 0 0 0 0
0 0 0 0 0 0 0 0 0 0
0 0 0 0 0 0 0 0 0 0
0 0 0 0 0 0 0 0 0 0
0 0 0 0 0 0 0 0 0 0
0 0 0 0 0 0 0 0 0 0
0 0 0 0 0 0 0 0 0 0
0 0 0 0 0 0 0 0 0 0
0 0 0 0 0 0 0 0 0 0
0 0 0 0 0 0 0 0 0 0
0 0 0 0 0 0 0 0 0 0
0 0 0 0 0 0 0 0 0 0
0 0 0 0 0 0 0 0 0 0
0 0 0 0 0 0 0 0 0 0
0 0 0 0 0 0 0 0 0 0
0 0 0 0 0 0 0 0 0 0
0 0 0 0 0 0 0 0 0 0
0 0 0 0 0 0 0 0 0 0
0 0 0 0 0 0 0 0 0 0
0 0 0 0 0 0 0 0 0 0
0 0 0 0 0 0 0 0 0 0
0 0 0 0 0 0 0 0 0 0
0 0 0 0 0 0 0 0 0 0
0 0 0 0 0 0 0 0 0 0
0 0 0 0 0 0 0 0 0 
electrochemicalHeating 1 660 float
1.03534e+06 1.03812e+06 1.04151e+06 1.0413e+06 1.03872e+06 1.03736e+06 1.03307e+06 1.03071e+06 1.02863e+06 1.02691e+06 1.02661e+06
1.02257e+06 1.0209e+06 1.01934e+06 1.01788e+06 1.01845e+06 1.01512e+06 1.01374e+06 1.01228e+06 1.01062e+06 1.01096e+06
1.00715e+06 1.03534e+06 1.03812e+06 1.04151e+06 1.0413e+06 1.03872e+06 1.03736e+06 1.03307e+06 1.03071e+06 1.02863e+06
1.02691e+06 1.02661e+06 1.02257e+06 1.0209e+06 1.01934e+06 1.01788e+06 1.01845e+06 1.01512e+06 1.01374e+06 1.01228e+06
1.01062e+06 1.01096e+06 1.00715e+06 1.03534e+06 1.03812e+06 1.04151e+06 1.0413e+06 1.03872e+06 1.03736e+06 1.03307e+06
1.03071e+06 1.02863e+06 1.02691e+06 1.02661e+06 1.02257e+06 1.0209e+06 1.01934e+06 1.01788e+06 1.01845e+06 1.01512e+06
1.01374e+06 1.01228e+06 1.01062e+06 1.01096e+06 1.00715e+06 1.03534e+06 1.03812e+06 1.04151e+06 1.0413e+06 1.03872e+06
1.03736e+06 1.03307e+06 1.03071e+06 1.02863e+06 1.02691e+06 1.02661e+06 1.02257e+06 1.0209e+06 1.01934e+06 1.01788e+06
1.01845e+06 1.01512e+06 1.01374e+06 1.01228e+06 1.01062e+06 1.01096e+06 1.00715e+06 1.03534e+06 1.03812e+06 1.04151e+06
1.0413e+06 1.03872e+06 1.03736e+06 1.03307e+06 1.03071e+06 1.02863e+06 1.02691e+06 1.02661e+06 1.02257e+06 1.0209e+06
1.01934e+06 1.01788e+06 1.01845e+06 1.01512e+06 1.01374e+06 1.01228e+06 1.01062e+06 1.01096e+06 1.00715e+06 1.0339e+06
1.03786e+06 1.04132e+06 1.04158e+06 1.03991e+06 1.03528e+06 1.03283e+06 1.03064e+06 1.02873e+06 1.02883e+06 1.02413e+06
1.02236e+06 1.02073e+06 1.01921e+06 1.02001e+06 1.01636e+06 1.01499e+06 1.01355e+06 1.01204e+06 1.01233e+06 1.00906e+06
1.00729e+06 1.0339e+06 1.03786e+06 1.04132e+06 1.04158e+06 1.03991e+06 1.03528e+06 1.03283e+06 1.03064e+06 1.02873e+06
1.02883e+06 1.02413e+06 1.02236e+06 1.02073e+06 1.01921e+06 1.02001e+06 1.01636e+06 1.01499e+06 1.01355e+06 1.01204e+06
1.01233e+06 1.00906e+06 1.00729e+06 1.0339e+06 1.03786e+06 1.04132e+06 1.04158e+06 1.03991e+06 1.03528e+06 1.03283e+06
1.03064e+06 1.02873e+06 1.02883e+06 1.02413e+06 1.02236e+06 1.02073e+06 1.01921e+06 1.02001e+06 1.01636e+06 1.01499e+06
1.01355e+06 1.01204e+06 1.01233e+06 1.00906e+06 1.00729e+06 1.0339e+06 1.03786e+06 1.04132e+06 1.04158e+06 1.03991e+06
1.03528e+06 1.03283e+06 1.03064e+06 1.02873e+06 1.02883e+06 1.02413e+06 1.02236e+06 1.02073e+06 1.01921e+06 1.02001e+06
1.01636e+06 1.01499e+06 1.01355e+06 1.01204e+06 1.01233e+06 1.00906e+06 1.00729e+06 1.0339e+06 1.03786e+06 1.04132e+06
1.04158e+06 1.03991e+06 1.03528e+06 1.03283e+06 1.03064e+06 1.02873e+06 1.02883e+06 1.02413e+06 1.02236e+06 1.02073e+06
1.01921e+06 1.02001e+06 1.01636e+06 1.01499e+06 1.01355e+06 1.01204e+06 1.01233e+06 1.00906e+06 1.00729e+06 1.03534e+06
1.03217e+06 1.02904e+06 1.03045e+06 1.0343e+06 1.03307e+06 1.03485e+06 1.03537e+06 1.03346e+06 1.03747e+06 1.04156e+06
1.03455e+06 1.03668e+06 1.03694e+06 1.03502e+06 1.04143e+06 1.0417e+06 1.03508e+06 1.03687e+06 1.03685e+06 1.03468e+06
1.04171e+06 1.04174e+06 1.03487e+06 1.03657e+06 1.03654e+06 1.03466e+06 1.04142e+06 1.04136e+06 1.03468e+06 1.03706e+06
1.03651e+06 1.0343e+06 1.0414e+06 1.03707e+06 1.03324e+06 1.03506e+06 1.03426e+06 1.0324e+06 1.03385e+06 1.02956e+06
1.02832e+06 1.03125e+06 1.0339e+06 1.03534e+06 1.03217e+06 1.02904e+06 1.03045e+06 1.0343e+06 1.03307e+06 1.03485e+06
1.03537e+06 1.03346e+06 1.03747e+06 1.04156e+06 1.03455e+06 1.03668e+06 1.03694e+06 1.03502e+06 1.04143e+06 1.0417e+06
1.03508e+06 1.03687e+06 1.03685e+06 1.03468e+06 1.04171e+06 1.04174e+06 1.03487e+06 1.03657e+06 1.03654e+06 1.03466e+06
1.04142e+06 1.04136e+06 1.03468e+06 1.03706e+06 1.03651e+06 1.0343e+06 1.0414e+06 1.03707e+06 1.03324e+06 1.03506e+06
1.03426e+06 1.0324e+06 1.03385e+06 1.02956e+06 1.02832e+06 1.03125e+06 1.0339e+06 1.03534e+06 1.03217e+06 1.02904e+06
1.03045e+06 1.0343e+06 1.03307e+06 1.03485e+06 1.03537e+06 1.03346e+06 1.03747e+06 1.04156e+06 1.03455e+06 1.03668e+06
1.03694e+06 1.03502e+06 1.04143e+06 1.0417e+06 1.03508e+06 1.03687e+06 1.03685e+06 1.03468e+06 1.04171e+06 1.04174e+06
1.03487e+06 1.03657e+06 1.03654e+06 1.03466e+06 1.04142e+06 1.04136e+06 1.03468e+06 1.03706e+06 1.03651e+06 1.0343e+06
1.0414e+06 1.03707e+06 1.03324e+06 1.03506e+06 1.03426e+06 1.0324e+06 1.03385e+06 1.02956e+06 1.02832e+06 1.03125e+06
1.0339e+06 1.03534e+06 1.03217e+06 1.02904e+06 1.03045e+06 1.0343e+06 1.03307e+06 1.03485e+06 1.03537e+06 1.03346e+06
1.03747e+06 1.04156e+06 1.03455e+06 1.03668e+06 1.03694e+06 1.03502e+06 1.04143e+06 1.0417e+06 1.03508e+06 1.03687e+06
1.03685e+06 1.03468e+06 1.04171e+06 1.04174e+06 1.03487e+06 1.03657e+06 1.03654e+06 1.03466e+06 1.04142e+06 1.04136e+06
1.03468e+06 1.03706e+06 1.03651e+06 1.0343e+06 1.0414e+06 1.03707e+06 1.03324e+06 1.03506e+06 1.03426e+06 1.0324e+06
1.03385e+06 1.02956e+06 1.02832e+06 1.03125e+06 1.0339e+06 1.03534e+06 1.03217e+06 1.02904e+06 1.03045e+06 1.0343e+06
1.03307e+06 1.03485e+06 1.03537e+06 1.03346e+06 1.03747e+06 1.04156e+06 1.03455e+06 1.03668e+06 1.03694e+06 1.03502e+06
1.04143e+06 1.0417e+06 1.03508e+06 1.03687e+06 1.03685e+06 1.03468e+06 1.04171e+06 1.04174e+06 1.03487e+06 1.03657e+06
1.03654e+06 1.03466e+06 1.04142e+06 1.04136e+06 1.03468e+06 1.03706e+06 1.03651e+06 1.0343e+06 1.0414e+06 1.03707e+06
1.03324e+06 1.03506e+06 1.03426e+06 1.0324e+06 1.03385e+06 1.02956e+06 1.02832e+06 1.03125e+06 1.0339e+06 1.00715e+06
1.00738e+06 1.00692e+06 1.01074e+06 1.00946e+06 1.00877e+06 1.0115e+06 1.01115e+06 1.00871e+06 1.0094e+06 1.00892e+06
1.01012e+06 1.01165e+06 1.01134e+06 1.0095e+06 1.00921e+06 1.00988e+06 1.01023e+06 1.01219e+06 1.01227e+06 1.01117e+06
1.01034e+06 1.01011e+06 1.01055e+06 1.01185e+06 1.01222e+06 1.00942e+06 1.0089e+06 1.00894e+06 1.00906e+06 1.01113e+06
1.01163e+06 1.01027e+06 1.00904e+06 1.0091e+06 1.00828e+06 1.01098e+06 1.01158e+06 1.00911e+06 1.00952e+06 1.01026e+06
1.00631e+06 1.00708e+06 1.00729e+06 1.00715e+06 1.00738e+06 1.00692e+06 1.01074e+06 1.00946e+06 1.00877e+06 1.0115e+06
1.01115e+06 1.00871e+06 1.0094e+06 1.00892e+06 1.01012e+06 1.01165e+06 1.01134e+06 1.0095e+06 1.00921e+06 1.00988e+06
1.01023e+06 1.01219e+06 1.01227e+06 1.01117e+06 1.01034e+06 1.01011e+06 1.01055e+06 1.01185e+06 1.01222e+06 1.00942e+06
1.0089e+06 1.00894e+06 1.00906e+06 1.01113e+06 1.01163e+06 1.01027e+06 1.00904e+06 1.0091e+06 1.00828e+06 1.01098e+06
1.01158e+06 1.00911e+06 1.00952e+06 1.01026e+06 1.00631e+06 1.00708e+06 1.00729e+06 1.00715e+06 1.00738e+06 1.00692e+06
1.01074e+06 1.00946e+06 1.00877e+06 1.0115e+06 1.01115e+06 1.00871e+06 1.0094e+06 1.00892e+06 1.01012e+06 1.01165e+06
1.01134e+06 1.0095e+06 1.00921e+06 1.00988e+06 1.01023e+06 1.01219e+06 1.01227e+06 1.01117e+06 1.01034e+06 1.01011e+06
1.01055e+06 1.01185e+06 1.01222e+06 1.00942e+06 1.0089e+06 1.00894e+06 1.00906e+06 1.01113e+06 1.01163e+06 1.01027e+06
1.00904e+06 1.0091e+06 1.00828e+06 1.01098e+06 1.01158e+06 1.00911e+06 1.00952e+06 1.01026e+06 1.00631e+06 1.00708e+06
1.00729e+06 1.00715e+06 1.00738e+06 1.00692e+06 1.01074e+06 1.00946e+06 1.00877e+06 1.0115e+06 1.01115e+06 1.00871e+06
1.0094e+06 1.00892e+06 1.01012e+06 1.01165e+06 1.01134e+06 1.0095e+06 1.00921e+06 1.00988e+06 1.01023e+06 1.01219e+06
1.01227e+06 1.01117e+06 1.01034e+06 1.01011e+06 1.01055e+06 1.01185e+06 1.01222e+06 1.00942e+06 1.0089e+06 1.00894e+06
1.00906e+06 1.01113e+06 1.01163e+06 1.01027e+06 1.00904e+06 1.0091e+06 1.00828e+06 1.01098e+06 1.01158e+06 1.00911e+06
1.00952e+06 1.01026e+06 1.00631e+06 1.00708e+06 1.00729e+06 1.00715e+06 1.00738e+06 1.00692e+06 1.01074e+06 1.00946e+06
1.00877e+06 1.0115e+06 1.01115e+06 1.00871e+06 1.0094e+06 1.00892e+06 1.01012e+06 1.01165e+06 1.01134e+06 1.0095e+06
1.00921e+06 1.00988e+06 1.01023e+06 1.01219e+06 1.01227e+06 1.01117e+06 1.01034e+06 1.01011e+06 1.01055e+06 1.01185e+06
1.01222e+06 1.00942e+06 1.0089e+06 1.00894e+06 1.00906e+06 1.01113e+06 1.01163e+06 1.01027e+06 1.00904e+06 1.0091e+06
1.00828e+06 1.01098e+06 1.01158e+06 1.00911e+06 1.00952e+06 1.01026e+06 1.00631e+06 1.00708e+06 1.00729e+06 
concMe 1 660 float
28.761 28.7697 28.7799 28.7807 28.7761 28.7712 28.7666 28.7618 28.7571 28.7525 28.748
28.7437 28.7394 28.7351 28.7308 28.7263 28.7221 28.7175 28.7129 28.7075 28.7013
28.6937 28.761 28.7697 28.7799 28.7807 28.7761 28.7712 28.7666 28.7618 28.7571
28.7525 28.748 28.7437 28.7394 28.7351 28.7308 28.7263 28.7221 28.7175 28.7129
28.7075 28.7013 28.6937 28.761 28.7697 28.7799 28.7807 28.7761 28.7712 28.7666
28.7618 28.7571 28.7525 28.748 28.7437 28.7394 28.7351 28.7308 28.7263 28.7221
28.7175 28.7129 28.7075 28.7013 28.6937 28.761 28.7697 28.7799 28.7807 28.7761
28.7712 28.7666 28.7618 28.7571 28.7525 28.748 28.7437 28.7394 28.7351 28.7308
28.7263 28.7221 28.7175 28.7129 28.7075 28.7013 28.6937 28.761 28.7697 28.7799
28.7807 28.7761 28.7712 28.7666 28.7618 28.7571 28.7525 28.748 28.7437 28.7394
28.7351 28.7308 28.7263 28.7221 28.7175 28.7129 28.7075 28.7013 28.6937 28.7611
28.7698 28.7799 28.7807 28.7761 28.7713 28.7666 28.7618 28.7571 28.7525 28.7481
28.7437 28.7394 28.7351 28.7307 28.7264 28.7221 28.7175 28.7129 28.7074 28.7013
28.6937 28.7611 28.7698 28.7799 28.7807 28.7761 28.7713 28.7666 28.7618 28.7571
28.7525 28.7481 28.7437 28.7394 28.7351 28.7307 28.7264 28.7221 28.7175 28.7129
28.7074 28.7013 28.6937 28.7611 28.7698 28.7799 28.7807 28.7761 28.7713 28.7666
28.7618 28.7571 28.7525 28.7481 28.7437 28.7394 28.7351 28.7307 28.7264 28.7221
28.7175 28.7129 28.7074 28.7013 28.6937 28.7611 28.7698 28.7799 28.7807 28.7761
28.7713 28.7666 28.7618 28.7571 28.7525 28.7481 28.7437 28.7394 28.7351 28.7307
28.7264 28.7221 28.7175 28.7129 28.7074 28.7013 28.6937 28.7611 28.7698 28.7799
28.7807 28.7761 28.7713 28.7666 28.7618 28.7571 28.7525 28.7481 28.7437 28.7394
28.7351 28.7307 28.7264 28.7221 28.7175 28.7129 28.7074 28.7013 28.6937 28.761
28.7551 28.7493 28.7525 28.7604 28.7574 28.7605 28.7616 28.7584 28.7665 28.7741
28.7612 28.7648 28.7654 28.7624 28.7747 28.775 28.7629 28.7659 28.7661 28.7634
28.7759 28.7758 28.7633 28.7661 28.7659 28.7629 28.7751 28.7748 28.7625 28.7654
28.7648 28.7612 28.7741 28.7665 28.7585 28.7617 28.7606 28.7574 28.7605 28.7526
28.7494 28.7551 28.7611 28.761 28.7551 28.7493 28.7525 28.7604 28.7574 28.7605
28.7616 28.7584 28.7665 28.7741 28.7612 28.7648 28.7654 28.7624 28.7747 28.775
28.7629 28.7659 28.7661 28.7634 28.7759 28.7758 28.7633 28.7661 28.7659 28.7629
28.7751 28.7748 28.7625 28.7654 28.7648 28.7612 28.7741 28.7665 28.7585 28.7617
28.7606 28.7574 28.7605 28.7526 28.7494 28.7551 28.7611 28.761 28.7551 28.7493
28.7525 28.7604 28.7574 28.7605 28.7616 28.7584 28.7665 28.7741 28.7612 28.7648
28.7654 28.7624 28.7747 28.775 28.7629 28.7659 28.7661 28.7634 28.7759 28.7758
28.7633 28.7661 28.7659 28.7629 28.7751 28.7748 28.7625 28.7654 28.7648 28.7612
28.7741 28.7665 28.7585 28.7617 28.7606 28.7574 28.7605 28.7526 28.7494 28.7551
28.7611 28.761 28.7551 28.7493 28.7525 28.7604 28.7574 28.7605 28.7616 28.7584
28.7665 28.7741 28.7612 28.7648 28.7654 28.7624 28.7747 28.775 28.7629 28.7659
28.7661 28.7634 28.7759 28.7758 28.7633 28.7661 28.7659 28.7629 28.7751 28.7748
28.7625 28.7654 28.7648 28.7612 28.7741 28.7665 28.7585 28.7617 28.7606 28.7574
28.7605 28.7526 28.7494 28.7551 28.7611 28.761 28.7551 28.7493 28.7525 28.7604
28.7574 28.7605 28.7616 28.7584 28.7665 28.7741 28.7612 28.7648 28.7654 28.7624
28.7747 28.775 28.7629 28.7659 28.7661 28.7634 28.7759 28.7758 28.7633 28.7661
28.7659 28.7629 28.7751 28.7748 28.7625 28.7654 28.7648 28.7612 28.7741 28.7665
28.7585 28.7617 28.7606 28.7574 28.7605 28.7526 28.7494 28.7551 28.7611 28.6937
28.6945 28.6927 28.7067 28.7039 28.7021 28.7097 28.7081 28.6999 28.703 28.7021
28.7052 28.7094 28.7079 28.7018 28.7019 28.7011 28.7017 28.7073 28.7069 28.7034
28.7022 28.7022 28.7034 28.7068 28.7073 28.7017 28.701 28.7018 28.7019 28.708
28.7096 28.7053 28.7022 28.703 28.7 28.7081 28.7096 28.702 28.7038 28.7068
28.6928 28.6945 28.6937 28.6937 28.6945 28.6927 28.7067 28.7039 28.7021 28.7097
28.7081 28.6999 28.703 28.7021 28.7052 28.7094 28.7079 28.7018 28.7019 28.7011
28.7017 28.7073 28.7069 28.7034 28.7022 28.7022 28.7034 28.7068 28.7073 28.7017
28.701 28.7018 28.7019 28.708 28.7096 28.7053 28.7022 28.703 28.7 28.7081
28.7096 28.702 28.7038 28.7068 28.6928 28.6945 28.6937 28.6937 28.6945 28.6927
28.7067 28.7039 28.7021 28.7097 28.7081 28.6999 28.703 28.7021 28.7052 28.7094
28.7079 28.7018 28.7019 28.7011 28.7017 28.7073 28.7069 28.7034 28.7022 28.7022
28.7034 28.7068 28.7073 28.7017 28.701 28.7018 28.7019 28.708 28.7096 28.7053
28.7022 28.703 28.7 28.7081 28.7096 28.702 28.7038 28.7068 28.6928 28.6945
28.6937 28.6937 28.6945 28.6927 28.7067 28.7039 28.7021 28.7097 28.7081 28.6999
28.703 28.7021 28.7052 28.7094 28.7079 28.7018 28.7019 28.7011 28.7017 28.7073
28.7069 28.7034 28.7022 28.7022 28.7034 28.7068 28.7073 28.7017 28.701 28.7018
28.7019 28.708 28.7096 28.7053 28.7022 28.703 28.7 28.7081 28.7096 28.702
28.7038 28.7068 28.6928 28.6945 28.6937 28.6937 28.6945 28.6927 28.7067 28.7039
28.7021 28.7097 28.7081 28.6999 28.703 28.7021 28.7052 28.7094 28.7079 28.7018
28.7019 28.7011 28.7017 28.7073 28.7069 28.7034 28.7022 28.7022 28.7034 28.7068
28.7073 28.7017 28.701 28.7018 28.7019 28.708 28.7096 28.7053 28.7022 28.703
28.7 28.7081 28.7096 28.702 28.7038 28.7068 28.6928 28.6945 28.6937 
iLC 1 660 float
41240.1 41254.6 41310.6 41345.7 41326 41302 41279.7 41256.5 41233.1 41209.5 41186.1
41163.4 41140.5 41117.6 41094.6 41070.9 41047.6 41021.6 40993.2 40959.3 40915.9
40862.6 41240.1 41254.6 41310.6 41345.7 41326 41302 41279.7 41256.5 41233.1
41209.5 41186.1 41163.4 41140.5 41117.6 41094.6 41070.9 41047.6 41021.6 40993.2
40959.3 40915.9 40862.6 41240.1 41254.6 41310.6 41345.7 41326 41302 41279.7
41256.5 41233.1 41209.5 41186.1 41163.4 41140.5 41117.6 41094.6 41070.9 41047.6
41021.6 40993.2 40959.3 40915.9 40862.6 41240.1 41254.6 41310.6 41345.7 41326
41302 41279.7 41256.5 41233.1 41209.5 41186.1 41163.4 41140.5 41117.6 41094.6
41070.9 41047.6 41021.6 40993.2 40959.3 40915.9 40862.6 41240.1 41254.6 41310.6
41345.7 41326 41302 41279.7 41256.5 41233.1 41209.5 41186.1 41163.4 41140.5
41117.6 41094.6 41070.9 41047.6 41021.6 40993.2 40959.3 40915.9 40862.6 41240.4
41254.6 41310.6 41345.7 41325.7 41302.3 41279.8 41256.5 41233.1 41209.1 41186.4
41163.4 41140.6 41117.6 41094.2 41071.2 41047.6 41021.6 40993.2 40958.8 40916.2
40862.5 41240.4 41254.6 41310.6 41345.7 41325.7 41302.3 41279.8 41256.5 41233.1
41209.1 41186.4 41163.4 41140.6 41117.6 41094.2 41071.2 41047.6 41021.6 40993.2
40958.8 40916.2 40862.5 41240.4 41254.6 41310.6 41345.7 41325.7 41302.3 41279.8
41256.5 41233.1 41209.1 41186.4 41163.4 41140.6 41117.6 41094.2 41071.2 41047.6
41021.6 40993.2 40958.8 40916.2 40862.5 41240.4 41254.6 41310.6 41345.7 41325.7
41302.3 41279.8 41256.5 41233.1 41209.1 41186.4 41163.4 41140.6 41117.6 41094.2
41071.2 41047.6 41021.6 40993.2 40958.8 40916.2 40862.5 41240.4 41254.6 41310.6
41345.7 41325.7 41302.3 41279.8 41256.5 41233.1 41209.1 41186.4 41163.4 41140.6
41117.6 41094.2 41071.2 41047.6 41021.6 40993.2 40958.8 40916.2 40862.5 41240.1
41212.2 41178.7 41154.3 41184.4 41183.5 41212.3 41209.3 41202.2 41213.1 41230.6
41213.3 41225.4 41229.5 41219.7 41226.8 41231.9 41219.8 41230 41232.6 41222.4
41230.1 41230.4 41222.6 41232.8 41229.9 41219.8 41231.6 41226.4 41219.6 41229.3
41225.7 41213.5 41230.8 41213.3 41202.1 41209.2 41212.4 41183.9 41184.3 41154.5
41178.9 41212.5 41240.4 41240.1 41212.2 41178.7 41154.3 41184.4 41183.5 41212.3
41209.3 41202.2 41213.1 41230.6 41213.3 41225.4 41229.5 41219.7 41226.8 41231.9
41219.8 41230 41232.6 41222.4 41230.1 41230.4 41222.6 41232.8 41229.9 41219.8
41231.6 41226.4 41219.6 41229.3 41225.7 41213.5 41230.8 41213.3 41202.1 41209.2
41212.4 41183.9 41184.3 41154.5 41178.9 41212.5 41240.4 41240.1 41212.2 41178.7
41154.3 41184.4 41183.5 41212.3 41209.3 41202.2 41213.1 41230.6 41213.3 41225.4
41229.5 41219.7 41226.8 41231.9 41219.8 41230 41232.6 41222.4 41230.1 41230.4
41222.6 41232.8 41229.9 41219.8 41231.6 41226.4 41219.6 41229.3 41225.7 41213.5
41230.8 41213.3 41202.1 41209.2 41212.4 41183.9 41184.3 41154.5 41178.9 41212.5
41240.4 41240.1 41212.2 41178.7 41154.3 41184.4 41183.5 41212.3 41209.3 41202.2
41213.1 41230.6 41213.3 41225.4 41229.5 41219.7 41226.8 41231.9 41219.8 41230
41232.6 41222.4 41230.1 41230.4 41222.6 41232.8 41229.9 41219.8 41231.6 41226.4
41219.6 41229.3 41225.7 41213.5 41230.8 41213.3 41202.1 41209.2 41212.4 41183.9
41184.3 41154.5 41178.9 41212.5 41240.4 41240.1 41212.2 41178.7 41154.3 41184.4
41183.5 41212.3 41209.3 41202.2 41213.1 41230.6 41213.3 41225.4 41229.5 41219.7
41226.8 41231.9 41219.8 41230 41232.6 41222.4 41230.1 41230.4 41222.6 41232.8
41229.9 41219.8 41231.6 41226.4 41219.6 41229.3 41225.7 41213.5 41230.8 41213.3
41202.1 41209.2 41212.4 41183.9 41184.3 41154.5 41178.9 41212.5 41240.4 40862.6
40875.3 40906.6 41024.5 41017.4 40987.4 40997.3 40984.7 40960.2 41011.8 41004.9
40970.2 40974.7 40967.7 40970.2 41011.6 41005.6 40945.5 40955.9 40957.1 40971.4
41019.3 41019.5 40972.4 40958.2 40957.5 40945.9 41006 41011.7 40969.5 40966.3
40973.3 40969.6 41004.1 41011.8 40959.7 40984 40996.8 40986.9 41016.8 41024.6
40907.2 40875.4 40862.5 40862.6 40875.3 40906.6 41024.5 41017.4 40987.4 40997.3
40984.7 40960.2 41011.8 41004.9 40970.2 40974.7 40967.7 40970.2 41011.6 41005.6
40945.5 40955.9 40957.1 40971.4 41019.3 41019.5 40972.4 40958.2 40957.5 40945.9
41006 41011.7 40969.5 40966.3 40973.3 40969.6 41004.1 41011.8 40959.7 40984
40996.8 40986.9 41016.8 41024.6 40907.2 40875.4 40862.5 40862.6 40875.3 40906.6
41024.5 41017.4 40987.4 40997.3 40984.7 40960.2 41011.8 41004.9 40970.2 40974.7
40967.7 40970.2 41011.6 41005.6 40945.5 40955.9 40957.1 40971.4 41019.3 41019.5
40972.4 40958.2 40957.5 40945.9 41006 41011.7 40969.5 40966.3 40973.3 40969.6
41004.1 41011.8 40959.7 40984 40996.8 40986.9 41016.8 41024.6 40907.2 40875.4
40862.5 40862.6 40875.3 40906.6 41024.5 41017.4 40987.4 40997.3 40984.7 40960.2
41011.8 41004.9 40970.2 40974.7 40967.7 40970.2 41011.6 41005.6 40945.5 40955.9
40957.1 40971.4 41019.3 41019.5 40972.4 40958.2 40957.5 40945.9 41006 41011.7
40969.5 40966.3 40973.3 40969.6 41004.1 41011.8 40959.7 40984 40996.8 40986.9
41016.8 41024.6 40907.2 40875.4 40862.5 40862.6 40875.3 40906.6 41024.5 41017.4
40987.4 40997.3 40984.7 40960.2 41011.8 41004.9 40970.2 40974.7 40967.7 40970.2
41011.6 41005.6 40945.5 40955.9 40957.1 40971.4 41019.3 41019.5 40972.4 40958.2
40957.5 40945.9 41006 41011.7 40969.5 40966.3 40973.3 40969.6 41004.1 41011.8
40959.7 40984 40996.8 40986.9 41016.8 41024.6 40907.2 40875.4 40862.5 
I 1 660 float
1631.95 1635.26 1639.62 1639.27 1635.93 1634.23 1627.76 1624.53 1621.73 1619.47 1619.54
1613.32 1611.06 1608.97 1607.03 1608.44 1603.4 1601.59 1599.67 1597.46 1598.71