# vtk DataFile Version 2.0
electrolyteSides
ASCII
DATASET POLYDATA
POINTS 792 float
0.0034137 0 0 0.0034391 0 0 0.0034391 0 0.001 0.0034137 0
0.001 0.0034391 0 0.002 0.0034137 0 0.002 0.0034391 0 0.003
0.0034137 0 0.003 0.0034391 0 0.004 0.0034137 0 0.004 0.0034391
0 0.005 0.0034137 0 0.005 0.0034391 0 0.006 0.0034137 0
0.006 0.0034391 0 0.007 0.0034137 0 0.007 0.0034391 0 0.008
0.0034137 0 0.008 0.0034391 0 0.009 0.0034137 0 0.009 0.0034391
0 0.01 0.0034137 0 0.01 0.0034391 0 0.011 0.0034137 0
0.011 0.0034391 0 0.012 0.0034137 0 0.012 0.0034391 0 0.013
0.0034137 0 0.013 0.0034391 0 0.014 0.0034137 0 0.014 0.0034391
0 0.015 0.0034137 0 0.015 0.0034391 0 0.016 0.0034137 0
0.016 0.0034391 0 0.017 0.0034137 0 0.017 0.0034391 0 0.018
0.0034137 0 0.018 0.0034391 0 0.019 0.0034137 0 0.019 0.0034391
0 0.02 0.0034137 0 0.02 0.0034391 0 0.021 0.0034137 0
0.021 0.0034391 0 0.022 0.0034137 0 0.022 0.0034645 0 0
0.0034645 0 0.001 0.0034645 0 0.002 0.0034645 0 0.003 0.0034645
0 0.004 0.0034645 0 0.005 0.0034645 0 0.006 0.0034645 0
0.007 0.0034645 0 0.008 0.0034645 0 0.009 0.0034645 0 0.01
0.0034645 0 0.011 0.0034645 0 0.012 0.0034645 0 0.013 0.0034645
0 0.014 0.0034645 0 0.015 0.0034645 0 0.016 0.0034645 0
0.017 0.0034645 0 0.018 0.0034645 0 0.019 0.0034645 0 0.02
0.0034645 0 0.021 0.0034645 0 0.022 0.0034899 0 0 0.0034899
0 0.001 0.0034899 0 0.002 0.0034899 0 0.003 0.0034899 0
0.004 0.0034899 0 0.005 0.0034899 0 0.006 0.0034899 0 0.007
0.0034899 0 0.008 0.0034899 0 0.009 0.0034899 0 0.01 0.0034899
0 0.011 0.0034899 0 0.012 0.0034899 0 0.013 0.0034899 0
0.014 0.0034899 0 0.015 0.0034899 0 0.016 0.0034899 0 0.017
0.0034899 0 0.018 0.0034899 0 0.019 0.0034899 0 0.02 0.0034899
0 0.021 0.0034899 0 0.022 0.0035153 0 0 0.0035153 0
0.001 0.0035153 0 0.002 0.0035153 0 0.003 0.0035153 0 0.004
0.0035153 0 0.005 0.0035153 0 0.006 0.0035153 0 0.007 0.0035153
0 0.008 0.0035153 0 0.009 0.0035153 0 0.01 0.0035153 0
0.011 0.0035153 0 0.012 0.0035153 0 0.013 0.0035153 0 0.014
0.0035153 0 0.015 0.0035153 0 0.016 0.0035153 0 0.017 0.0035153
0 0.018 0.0035153 0 0.019 0.0035153 0 0.02 0.0035153 0
0.021 0.0035153 0 0.022 0.0035407 0 0 0.0035407 0 0.001
0.0035407 0 0.002 0.0035407 0 0.003 0.0035407 0 0.004 0.0035407
0 0.005 0.0035407 0 0.006 0.0035407 0 0.007 0.0035407 0
0.008 0.0035407 0 0.009 0.0035407 0 0.01 0.0035407 0 0.011
0.0035407 0 0.012 0.0035407 0 0.013 0.0035407 0 0.014 0.0035407
0 0.015 0.0035407 0 0.016 0.0035407 0 0.017 0.0035407 0
0.018 0.0035407 0 0.019 0.0035407 0 0.02 0.0035407 0 0.021
0.0035407 0 0.022 0.0034137 0.022 0 0.0034137 0.022 0.001 0.0034391
0.022 0.001 0.0034391 0.022 0 0.0034137 0.022 0.002 0.0034391 0.022
0.002 0.0034137 0.022 0.003 0.0034391 0.022 0.003 0.0034137 0.022 0.004
0.0034391 0.022 0.004 0.0034137 0.022 0.005 0.0034391 0.022 0.005 0.0034137
0.022 0.006 0.0034391 0.022 0.006 0.0034137 0.022 0.007 0.0034391 0.022
0.007 0.0034137 0.022 0.008 0.0034391 0.022 0.008 0.0034137 0.022 0.009
0.0034391 0.022 0.009 0.0034137 0.022 0.01 0.0034391 0.022 0.01 0.0034137
0.022 0.011 0.0034391 0.022 0.011 0.0034137 0.022 0.012 0.0034391 0.022
0.012 0.0034137 0.022 0.013 0.0034391 0.022 0.013 0.0034137 0.022 0.014
0.0034391 0.022 0.014 0.0034137 0.022 0.015 0.0034391 0.022 0.015 0.0034137
0.022 0.016 0.0034391 0.022 0.016 0.0034137 0.022 0.017 0.0034391 0.022
0.017 0.0034137 0.022 0.018 0.0034391 0.022 0.018 0.0034137 0.022 0.019
0.0034391 0.022 0.019 0.0034137 0.022 0.02 0.0034391 0.022 0.02 0.0034137
0.022 0.021 0.0034391 0.022 0.021 0.0034137 0.022 0.022 0.0034391 0.022
0.022 0.0034645 0.022 0.001 0.0034645 0.022 0 0.0034645 0.022 0.002
0.0034645 0.022 0.003 0.0034645 0.022 0.004 0.0034645 0.022 0.005 0.0034645
0.022 0.006 0.0034645 0.022 0.007 0.0034645 0.022 0.008 0.0034645 0.022
0.009 0.0034645 0.022 0.01 0.0034645 0.022 0.011 0.0034645 0.022 0.012
0.0034645 0.022 0.013 0.0034645 0.022 0.014 0.0034645 0.022 0.015 0.0034645
0.022 0.016 0.0034645 0.022 0.017 0.0034645 0.022 0.018 0.0034645 0.022
0.019 0.0034645 0.022 0.02 0.0034645 0.022 0.021 0.0034645 0.022 0.022
0.0034899 0.022 0.001 0.0034899 0.022 0 0.0034899 0.022 0.002 0.0034899
0.022 0.003 0.0034899 0.022 0.004 0.0034899 0.022 0.005 0.0034899 0.022
0.006 0.0034899 0.022 0.007 0.0034899 0.022 0.008 0.0034899 0.022 0.009
0.0034899 0.022 0.01 0.0034899 0.022 0.011 0.0034899 0.022 0.012 0.0034899
0.022 0.013 0.0034899 0.022 0.014 0.0034899 0.022 0.015 0.0034899 0.022
0.016 0.0034899 0.022 0.017 0.0034899 0.022 0.018 0.0034899 0.022 0.019
0.0034899 0.022 0.02 0.0034899 0.022 0.021 0.0034899 0.022 0.022 0.0035153
0.022 0.001 0.0035153 0.022 0 0.0035153 0.022 0.002 0.0035153 0.022
0.003 0.0035153 0.022 0.004 0.0035153 0.022 0.005 0.0035153 0.022 0.006
0.0035153 0.022 0.007 0.0035153 0.022 0.008 0.0035153 0.022 0.009 0.0035153
0.022 0.01 0.0035153 0.022 0.011 0.0035153 0.022 0.012 0.0035153 0.022
0.013 0.0035153 0.022 0.014 0.0035153 0.022 0.015 0.0035153 0.022 0.016
0.0035153 0.022 0.017 0.0035153 0.022 0.018 0.0035153 0.022 0.019 0.0035153
0.022 0.02 0.0035153 0.022 0.021 0.0035153 0.022 0.022 0.0035407 0.022
0.001 0.0035407 0.022 0 0.0035407 0.022 0.002 0.0035407 0.022 0.003
0.0035407 0.022 0.004 0.0035407 0.022 0.005 0.0035407 0.022 0.006 0.0035407
0.022 0.007 0.0035407 0.022 0.008 0.0035407 0.022 0.009 0.0035407 0.022
0.01 0.0035407 0.022 0.011 0.0035407 0.022 0.012 0.0035407 0.022 0.013
0.0035407 0.022 0.014 0.0035407 0.022 0.015 0.0035407 0.022 0.016 0.0035407
0.022 0.017 0.0035407 0.022 0.018 0.0035407 0.022 0.019 0.0035407 0.022
0.02 0.0035407 0.022 0.021 0.0035407 0.022 0.022 0.0034137 0.0005 0
0.0034391 0.0005 0 0.0034137 0.001 0 0.0034391 0.001 0 0.0034137
0.0015 0 0.0034391 0.0015 0 0.0034137 0.002 0 0.0034391 0.002
0 0.0034137 0.0025 0 0.0034391 0.0025 0 0.0034137 0.003 0
0.0034391 0.003 0 0.0034137 0.0035 0 0.0034391 0.0035 0 0.0034137
0.004 0 0.0034391 0.004 0 0.0034137 0.0045 0 0.0034391 0.0045
0 0.0034137 0.005 0 0.0034391 0.005 0 0.0034137 0.0055 0
0.0034391 0.0055 0 0.0034137 0.006 0 0.0034391 0.006 0 0.0034137
0.0065 0 0.0034391 0.0065 0 0.0034137 0.007 0 0.0034391 0.007
0 0.0034137 0.0075 0 0.0034391 0.0075 0 0.0034137 0.008 0
0.0034391 0.008 0 0.0034137 0.0085 0 0.0034391 0.0085 0 0.0034137
0.009 0 0.0034391 0.009 0 0.0034137 0.0095 0 0.0034391 0.0095
0 0.0034137 0.01 0 0.0034391 0.01 0 0.0034137 0.0105 0
0.0034391 0.0105 0 0.0034137 0.011 0 0.0034391 0.011 0 0.0034137
0.0115 0 0.0034391 0.0115 0 0.0034137 0.012 0 0.0034391 0.012
0 0.0034137 0.0125 0 0.0034391 0.0125 0 0.0034137 0.013 0
0.0034391 0.013 0 0.0034137 0.0135 0 0.0034391 0.0135 0 0.0034137
0.014 0 0.0034391 0.014 0 0.0034137 0.0145 0 0.0034391 0.0145
0 0.0034137 0.015 0 0.0034391 0.015 0 0.0034137 0.0155 0
0.0034391 0.0155 0 0.0034137 0.016 0 0.0034391 0.016 0 0.0034137
0.0165 0 0.0034391 0.0165 0 0.0034137 0.017 0 0.0034391 0.017
0 0.0034137 0.0175 0 0.0034391 0.0175 0 0.0034137 0.018 0
0.0034391 0.018 0 0.0034137 0.0185 0 0.0034391 0.0185 0 0.0034137
0.019 0 0.0034391 0.019 0 0.0034137 0.0195 0 0.0034391 0.0195
0 0.0034137 0.02 0 0.0034391 0.02 0 0.0034137 0.0205 0
0.0034391 0.0205 0 0.0034137 0.021 0 0.0034391 0.021 0 0.0034137
0.0215 0 0.0034391 0.0215 0 0.0034645 0.0005 0 0.0034645 0.001
0 0.0034645 0.0015 0 0.0034645 0.002 0 0.0034645 0.0025 0
0.0034645 0.003 0 0.0034645 0.0035 0 0.0034645 0.004 0 0.0034645
0.0045 0 0.0034645 0.005 0 0.0034645 0.0055 0 0.0034645 0.006
0 0.0034645 0.0065 0 0.0034645 0.007 0 0.0034645 0.0075 0
0.0034645 0.008 0 0.0034645 0.0085 0 0.0034645 0.009 0 0.0034645
0.0095 0 0.0034645 0.01 0 0.0034645 0.0105 0 0.0034645 0.011
0 0.0034645 0.0115 0 0.0034645 0.012 0 0.0034645 0.0125 0
0.0034645 0.013 0 0.0034645 0.0135 0 0.0034645 0.014 0 0.0034645
0.0145 0 0.0034645 0.015 0 0.0034645 0.0155 0 0.0034645 0.016
0 0.0034645 0.0165 0 0.0034645 0.017 0 0.0034645 0.0175 0
0.0034645 0.018 0 0.0034645 0.0185 0 0.0034645 0.019 0 0.0034645
0.0195 0 0.0034645 0.02 0 0.0034645 0.0205 0 0.0034645 0.021
0 0.0034645 0.0215 0 0.0034899 0.0005 0 0.0034899 0.001 0
0.0034899 0.0015 0 0.0034899 0.002 0 0.0034899 0.0025 0 0.0034899
0.003 0 0.0034899 0.0035 0 0.0034899 0.004 0 0.0034899 0.0045
0 0.0034899 0.005 0 0.0034899 0.0055 0 0.0034899 0.006 0
0.0034899 0.0065 0 0.0034899 0.007 0 0.0034899 0.0075 0 0.0034899
0.008 0 0.0034899 0.0085 0 0.0034899 0.009 0 0.0034899 0.0095
0 0.0034899 0.01 0 0.0034899 0.0105 0 0.0034899 0.011 0
0.0034899 0.0115 0 0.0034899 0.012 0 0.0034899 0.0125 0 0.0034899
0.013 0 0.0034899 0.0135 0 0.0034899 0.014 0 0.0034899 0.0145
0 0.0034899 0.015 0 0.0034899 0.0155 0 0.0034899 0.016 0
0.0034899 0.0165 0 0.0034899 0.017 0 0.0034899 0.0175 0 0.0034899
0.018 0 0.0034899 0.0185 0 0.0034899 0.019 0 0.0034899 0.0195
0 0.0034899 0.02 0 0.0034899 0.0205 0 0.0034899 0.021 0
0.0034899 0.0215 0 0.0035153 0.0005 0 0.0035153 0.001 0 0.0035153
0.0015 0 0.0035153 0.002 0 0.0035153 0.0025 0 0.0035153 0.003
0 0.0035153 0.0035 0 0.0035153 0.004 0 0.0035153 0.0045 0
0.0035153 0.005 0 0.0035153 0.0055 0 0.0035153 0.006 0 0.0035153
0.0065 0 0.0035153 0.007 0 0.0035153 0.0075 0 0.0035153 0.008
0 0.0035153 0.0085 0 0.0035153 0.009 0 0.0035153 0.0095 0
0.0035153 0.01 0 0.0035153 0.0105 0 0.0035153 0.011 0 0.0035153
0.0115 0 0.0035153 0.012 0 0.0035153 0.0125 0 0.0035153 0.013
0 0.0035153 0.0135 0 0.0035153 0.014 0 0.0035153 0.0145 0
0.0035153 0.015 0 0.0035153 0.0155 0 0.0035153 0.016 0 0.0035153
0.0165 0 0.0035153 0.017 0 0.0035153 0.0175 0 0.0035153 0.018
0 0.0035153 0.0185 0 0.0035153 0.019 0 0.0035153 0.0195 0
0.0035153 0.02 0 0.0035153 0.0205 0 0.0035153 0.021 0 0.0035153
0.0215 0 0.0035407 0.0005 0 0.0035407 0.001 0 0.0035407 0.0015
0 0.0035407 0.002 0 0.0035407 0.0025 0 0.0035407 0.003 0
0.0035407 0.0035 0 0.0035407 0.004 0 0.0035407 0.0045 0 0.0035407
0.005 0 0.0035407 0.0055 0 0.0035407 0.006 0 0.0035407 0.0065
0 0.0035407 0.007 0 0.0035407 0.0075 0 0.0035407 0.008 0
0.0035407 0.0085 0 0.0035407 0.009 0 0.0035407 0.0095 0 0.0035407
0.01 0 0.0035407 0.0105 0 0.0035407 0.011 0 0.0035407 0.0115
0 0.0035407 0.012 0 0.0035407 0.0125 0 0.0035407 0.013 0
[...]
CELL_DATA 660
FIELD attributes 16
patchID 1 660 float
0 0 0 0 0 0 0 0 0 0 0
0 0 0 0 0 0 0 0 0 0
0 0 0 0 0 0 0 0 0 0
0 0 0 0 0 0 0 0 0 0
0 0 0 0 0 0 0 0 0 0
0 0 0 0 0 0 0 0 0 0
0 0 0 0 0 0 0 0 0 0
0 0 0 0 0 0 0 0 0 0
0 0 0 0 0 0 0 0 0 0
0 0 0 0 0 0 0 0 0 0
0 0 0 0 0 0 0 0 0 0
0 0 0 0 0 0 0 0 0 0
0 0 0 0 0 0 0 0 0 0
0 0 0 0 0 0 0 0 0 0
0 0 0 0 0 0 0 0 0 0
0 0 0 0 0 0 0 0 0 0
0 0 0 0 0 0 0 0 0 0
0 0 0 0 0 0 0 0 0 0
0 0 0 0 0 0 0 0 0 0
0 0 0 0 0 0 0 0 0 0
0 0 0 0 0 0 0 0 0 0
0 0 0 0 0 0 0 0 0 0
0 0 0 0 0 0 0 0 0 0
0 0 0 0 0 0 0 0 0 0
0 0 0 0 0 0 0 0 0 0
0 0 0 0 0 0 0 0 0 0
0 0 0 0 0 0 0 0 0 0
0 0 0 0 0 0 0 0 0 0
0 0 0 0 0 0 0 0 0 0
0 0 0 0 0 0 0 0 0 0
0 0 0 0 0 0 0 0 0 0
0 0 0 0 0 0 0 0 0 0
0 0 0 0 0 0 0 0 0 0
0 0 0 0 0 0 0 0 0 0
0 0 0 0 0 0 0 0 0 0
0 0 0 0 0 0 0 0 0 0
0 0 0 0 0 0 0 0 0 0
0 0 0 0 0 0 0 0 0 0
0 0 0 0 0 0 0 0 0 0
0 0 0 0 0 0 0 0 0 0
0 0 0 0 0 0 0 0 0 0
0 0 0 0 0 0 0 0 0 0
0 0 0 0 0 0 0 0 0 0
0 0 0 0 0 0 0 0 0 0
0 0 0 0 0 0 0 0 0 0
0 0 0 0 0 0 0 0 0 0
0 0 0 0 0 0 0 0 0 0
0 0 0 0 0 0 0 0 0 0
0 0 0 0 0 0 0 0 0 0
0 0 0 0 0 0 0 0 0 0
0 0 0 0 0 0 0 0 0 0
0 0 0 0 0 0 0 0 0 0
0 0 0 0 0 0 0 0 0 0
0 0 0 0 0 0 0 0 0 0
0 0 0 0 0 0 0 0 0 0
0 0 0 0 0 0 0 0 0 0
0 0 0 0 0 0 0 0 0 0
0 0 0 0 0 0 0 0 0 0
0 0 0 0 0 0 0 0 0 0
0 0 0 0 0 0 0 0 0 0
0 0 0 0 0 0 0 0 0 0
0 0 0 0 0 0 0 0 0 0
0 0 0 0 0 0 0 0 0 0
0 0 0 0 0 0 0 0 0 0
0 0 0 0 0 0 0 0 0 0
0 0 0 0 0 0 0 0 0 
electrochemicalHeating 1 660 float
204072 204163 203266 202094 201048 201211 199454 198658 197951 197332 197791
196470 196023 195630 195287 195951 194820 194524 194223 193884 194352
192716 204072 204163 203266 202094 201048 201211 199454 198658 197951
197332 197791 196470 196023 195630 195287 195951 194820 194524 194223
193884 194352 192716 204072 204163 203266 202094 201048 201211 199454
198658 197951 197332 197791 196470 196023 195630 195287 195951 194820
194524 194223 193884 194352 192716 204072 204163 203266 202094 201048
201211 199454 198658 197951 197332 197791 196470 196023 195630 195287
195951 194820 194524 194223 193884 194352 192716 204072 204163 203266
202094 201048 201211 199454 198658 197951 197332 197791 196470 196023
195630 195287 195951 194820 194524 194223 193884 194352 192716 202888
204143 203259 202091 202059 200300 199417 198625 197923 198161 196922
196418 195979 195596 196058 195072 194765 194480 194188 194666 193465
192680 202888 204143 203259 202091 202059 200300 199417 198625 197923
198161 196922 196418 195979 195596 196058 195072 194765 194480 194188
194666 193465 192680 202888 204143 203259 202091 202059 200300 199417
198625 197923 198161 196922 196418 195979 195596 196058 195072 194765
194480 194188 194666 193465 192680 202888 204143 203259 202091 202059
200300 199417 198625 197923 198161 196922 196418 195979 195596 196058
195072 194765 194480 194188 194666 193465 192680 202888 204143 203259
202091 202059 200300 199417 198625 197923 198161 196922 196418 195979
195596 196058 195072 194765 194480 194188 194666 193465 192680 204072
209315 215680 216610 216481 215314 209736 210009 215388 216123 215466
214714 209289 209338 214737 215238 215232 214485 209081 209104 214490
215227 215224 214478 209084 209264 214674 215413 215413 214665 209734
209700 215138 215883 215896 215144 209773 209515 215088 215871 215499
214527 208144 202888 204072 209315 215680 216610 216481 215314 209736
210009 215388 216123 215466 214714 209289 209338 214737 215238 215232
214485 209081 209104 214490 215227 215224 214478 209084 209264 214674
215413 215413 214665 209734 209700 215138 215883 215896 215144 209773
209515 215088 215871 215499 214527 208144 202888 204072 209315 215680
216610 216481 215314 209736 210009 215388 216123 215466 214714 209289
209338 214737 215238 215232 214485 209081 209104 214490 215227 215224
214478 209084 209264 214674 215413 215413 214665 209734 209700 215138
215883 215896 215144 209773 209515 215088 215871 215499 214527 208144
202888 204072 209315 215680 216610 216481 215314 209736 210009 215388
216123 215466 214714 209289 209338 214737 215238 215232 214485 209081
209104 214490 215227 215224 214478 209084 209264 214674 215413 215413
214665 209734 209700 215138 215883 215896 215144 209773 209515 215088
215871 215499 214527 208144 202888 204072 209315 215680 216610 216481
215314 209736 210009 215388 216123 215466 214714 209289 209338 214737
215238 215232 214485 209081 209104 214490 215227 215224 214478 209084
209264 214674 215413 215413 214665 209734 209700 215138 215883 215896
215144 209773 209515 215088 215871 215499 214527 208144 202888 192716
193786 196999 202016 203066 200620 198068 197974 200163 203095 203228
200582 198140 198114 200433 203262 203571 200769 198364 198371 200748
203551 203527 200696 198343 198391 200553 203326 203235 200378 198082
198051 200514 203243 203063 200101 197931 198072 200632 203026 201901
196950 193765 192680 192716 193786 196999 202016 203066 200620 198068
197974 200163 203095 203228 200582 198140 198114 200433 203262 203571
200769 198364 198371 200748 203551 203527 200696 198343 198391 200553
203326 203235 200378 198082 198051 200514 203243 203063 200101 197931
198072 200632 203026 201901 196950 193765 192680 192716 193786 196999
202016 203066 200620 198068 197974 200163 203095 203228 200582 198140
198114 200433 203262 203571 200769 198364 198371 200748 203551 203527
200696 198343 198391 200553 203326 203235 200378 198082 198051 200514
203243 203063 200101 197931 198072 200632 203026 201901 196950 193765
192680 192716 193786 196999 202016 203066 200620 198068 197974 200163
203095 203228 200582 198140 198114 200433 203262 203571 200769 198364
198371 200748 203551 203527 200696 198343 198391 200553 203326 203235
200378 198082 198051 200514 203243 203063 200101 197931 198072 200632
203026 201901 196950 193765 192680 192716 193786 196999 202016 203066
200620 198068 197974 200163 203095 203228 200582 198140 198114 200433
203262 203571 200769 198364 198371 200748 203551 203527 200696 198343
198391 200553 203326 203235 200378 198082 198051 200514 203243 203063
200101 197931 198072 200632 203026 201901 196950 193765 192680 
concMe 1 660 float
28.7369 28.7468 28.7403 28.7306 28.7206 28.7106 28.7006 28.6907 28.681 28.6717 28.6628
28.6547 28.647 28.6398 28.6331 28.6265 28.6205 28.6145 28.608 28.6002 28.5883
28.5687 28.7369 28.7468 28.7403 28.7306 28.7206 28.7106 28.7006 28.6907 28.681
28.6717 28.6628 28.6547 28.647 28.6398 28.6331 28.6265 28.6205 28.6145 28.608
28.6002 28.5883 28.5687 28.7369 28.7468 28.7403 28.7306 28.7206 28.7106 28.7006
28.6907 28.681 28.6717 28.6628 28.6547 28.647 28.6398 28.6331 28.6265 28.6205
28.6145 28.608 28.6002 28.5883 28.5687 28.7369 28.7468 28.7403 28.7306 28.7206
28.7106 28.7006 28.6907 28.681 28.6717 28.6628 28.6547 28.647 28.6398 28.6331
28.6265 28.6205 28.6145 28.608 28.6002 28.5883 28.5687 28.7369 28.7468 28.7403
28.7306 28.7206 28.7106 28.7006 28.6907 28.681 28.6717 28.6628 28.6547 28.647
28.6398 28.6331 28.6265 28.6205 28.6145 28.608 28.6002 28.5883 28.5687 28.7373
28.747 28.7404 28.7306 28.7206 28.7108 28.7007 28.6908 28.6811 28.6717 28.663
28.6548 28.6471 28.6399 28.633 28.6267 28.6206 28.6146 28.6081 28.6002 28.5885
28.5688 28.7373 28.747 28.7404 28.7306 28.7206 28.7108 28.7007 28.6908 28.6811
28.6717 28.663 28.6548 28.6471 28.6399 28.633 28.6267 28.6206 28.6146 28.6081
28.6002 28.5885 28.5688 28.7373 28.747 28.7404 28.7306 28.7206 28.7108 28.7007
28.6908 28.6811 28.6717 28.663 28.6548 28.6471 28.6399 28.633 28.6267 28.6206
28.6146 28.6081 28.6002 28.5885 28.5688 28.7373 28.747 28.7404 28.7306 28.7206
28.7108 28.7007 28.6908 28.6811 28.6717 28.663 28.6548 28.6471 28.6399 28.633
28.6267 28.6206 28.6146 28.6081 28.6002 28.5885 28.5688 28.7373 28.747 28.7404
28.7306 28.7206 28.7108 28.7007 28.6908 28.6811 28.6717 28.663 28.6548 28.6471
28.6399 28.633 28.6267 28.6206 28.6146 28.6081 28.6002 28.5885 28.5688 28.7369
28.7698 28.7927 28.796 28.7959 28.7932 28.7742 28.7752 28.7934 28.7961 28.7961
28.7935 28.7751 28.7752 28.7935 28.7962 28.7962 28.7936 28.7752 28.7753 28.7936
28.7962 28.7962 28.7936 28.7753 28.7752 28.7935 28.7962 28.7962 28.7935 28.7752
28.775 28.7934 28.7961 28.7961 28.7935 28.7753 28.7742 28.7932 28.796 28.7962
28.7929 28.77 28.7373 28.7369 28.7698 28.7927 28.796 28.7959 28.7932 28.7742
28.7752 28.7934 28.7961 28.7961 28.7935 28.7751 28.7752 28.7935 28.7962 28.7962
28.7936 28.7752 28.7753 28.7936 28.7962 28.7962 28.7936 28.7753 28.7752 28.7935
28.7962 28.7962 28.7935 28.7752 28.775 28.7934 28.7961 28.7961 28.7935 28.7753
28.7742 28.7932 28.796 28.7962 28.7929 28.77 28.7373 28.7369 28.7698 28.7927
28.796 28.7959 28.7932 28.7742 28.7752 28.7934 28.7961 28.7961 28.7935 28.7751
28.7752 28.7935 28.7962 28.7962 28.7936 28.7752 28.7753 28.7936 28.7962 28.7962
28.7936 28.7753 28.7752 28.7935 28.7962 28.7962 28.7935 28.7752 28.775 28.7934
28.7961 28.7961 28.7935 28.7753 28.7742 28.7932 28.796 28.7962 28.7929 28.77
28.7373 28.7369 28.7698 28.7927 28.796 28.7959 28.7932 28.7742 28.7752 28.7934
28.7961 28.7961 28.7935 28.7751 28.7752 28.7935 28.7962 28.7962 28.7936 28.7752
28.7753 28.7936 28.7962 28.7962 28.7936 28.7753 28.7752 28.7935 28.7962 28.7962
28.7935 28.7752 28.775 28.7934 28.7961 28.7961 28.7935 28.7753 28.7742 28.7932
28.796 28.7962 28.7929 28.77 28.7373 28.7369 28.7698 28.7927 28.796 28.7959
28.7932 28.7742 28.7752 28.7934 28.7961 28.7961 28.7935 28.7751 28.7752 28.7935
28.7962 28.7962 28.7936 28.7752 28.7753 28.7936 28.7962 28.7962 28.7936 28.7753
28.7752 28.7935 28.7962 28.7962 28.7935 28.7752 28.775 28.7934 28.7961 28.7961
28.7935 28.7753 28.7742 28.7932 28.796 28.7962 28.7929 28.77 28.7373 28.5687
28.5958 28.657 28.7197 28.7292 28.7068 28.6756 28.674 28.7013 28.7296 28.7309
28.7054 28.6753 28.6745 28.7031 28.73 28.7306 28.7045 28.6747 28.6744 28.7037
28.7302 28.7302 28.7037 28.6744 28.6747 28.7045 28.7306 28.73 28.7032 28.6745
28.6753 28.7054 28.7309 28.7296 28.7013 28.674 28.6757 28.7068 28.7292 28.7198
28.6571 28.5959 28.5688 28.5687 28.5958 28.657 28.7197 28.7292 28.7068 28.6756
28.674 28.7013 28.7296 28.7309 28.7054 28.6753 28.6745 28.7031 28.73 28.7306
28.7045 28.6747 28.6744 28.7037 28.7302 28.7302 28.7037 28.6744 28.6747 28.7045
28.7306 28.73 28.7032 28.6745 28.6753 28.7054 28.7309 28.7296 28.7013 28.674
28.6757 28.7068 28.7292 28.7198 28.6571 28.5959 28.5688 28.5687 28.5958 28.657
28.7197 28.7292 28.7068 28.6756 28.674 28.7013 28.7296 28.7309 28.7054 28.6753
28.6745 28.7031 28.73 28.7306 28.7045 28.6747 28.6744 28.7037 28.7302 28.7302
28.7037 28.6744 28.6747 28.7045 28.7306 28.73 28.7032 28.6745 28.6753 28.7054
28.7309 28.7296 28.7013 28.674 28.6757 28.7068 28.7292 28.7198 28.6571 28.5959
28.5688 28.5687 28.5958 28.657 28.7197 28.7292 28.7068 28.6756 28.674 28.7013
28.7296 28.7309 28.7054 28.6753 28.6745 28.7031 28.73 28.7306 28.7045 28.6747
28.6744 28.7037 28.7302 28.7302 28.7037 28.6744 28.6747 28.7045 28.7306 28.73
28.7032 28.6745 28.6753 28.7054 28.7309 28.7296 28.7013 28.674 28.6757 28.7068
28.7292 28.7198 28.6571 28.5959 28.5688 28.5687 28.5958 28.657 28.7197 28.7292
28.7068 28.6756 28.674 28.7013 28.7296 28.7309 28.7054 28.6753 28.6745 28.7031
28.73 28.7306 28.7045 28.6747 28.6744 28.7037 28.7302 28.7302 28.7037 28.6744
28.6747 28.7045 28.7306 28.73 28.7032 28.6745 28.6753 28.7054 28.7309 28.7296
28.7013 28.674 28.6757 28.7068 28.7292 28.7198 28.6571 28.5959 28.5688 
iLC 1 660 float
40994.2 40989.1 40922.1 40838 40759.2 40686.6 40623.5 40568 40519.9 40478 40440.3
40408.9 40381 40355.8 40333 40310.3 40290.3 40268.7 40242 40203.9 40131.3
40037.7 40994.2 40989.1 40922.1 40838 40759.2 40686.6 40623.5 40568 40519.9
40478 40440.3 40408.9 40381 40355.8 40333 40310.3 40290.3 40268.7 40242
40203.9 40131.3 40037.7 40994.2 40989.1 40922.1 40838 40759.2 40686.6 40623.5
40568 40519.9 40478 40440.3 40408.9 40381 40355.8 40333 40310.3 40290.3
40268.7 40242 40203.9 40131.3 40037.7 40994.2 40989.1 40922.1 40838 40759.2
40686.6 40623.5 40568 40519.9 40478 40440.3 40408.9 40381 40355.8 40333
40310.3 40290.3 40268.7 40242 40203.9 40131.3 40037.7 40994.2 40989.1 40922.1
40838 40759.2 40686.6 40623.5 40568 40519.9 40478 40440.3 40408.9 40381
40355.8 40333 40310.3 40290.3 40268.7 40242 40203.9 40131.3 40037.7 40997.5
40990.6 40923.2 40838.8 40758.8 40687.7 40624.2 40568.7 40520.4 40477.5 40441.5
40409.7 40381.7 40356.4 40332.6 40311.6 40291.2 40269.5 40242.6 40203.5 40132.8
40038.7 40997.5 40990.6 40923.2 40838.8 40758.8 40687.7 40624.2 40568.7 40520.4
40477.5 40441.5 40409.7 40381.7 40356.4 40332.6 40311.6 40291.2 40269.5 40242.6
40203.5 40132.8 40038.7 40997.5 40990.6 40923.2 40838.8 40758.8 40687.7 40624.2
40568.7 40520.4 40477.5 40441.5 40409.7 40381.7 40356.4 40332.6 40311.6 40291.2
40269.5 40242.6 40203.5 40132.8 40038.7 40997.5 40990.6 40923.2 40838.8 40758.8
40687.7 40624.2 40568.7 40520.4 40477.5 40441.5 40409.7 40381.7 40356.4 40332.6
40311.6 40291.2 40269.5 40242.6 40203.5 40132.8 40038.7 40997.5 40990.6 40923.2
40838.8 40758.8 40687.7 40624.2 40568.7 40520.4 40477.5 40441.5 40409.7 40381.7
40356.4 40332.6 40311.6 40291.2 40269.5 40242.6 40203.5 40132.8 40038.7 40994.2
41188.5 41399.9 41440.1 41440.4 41411.1 41267.4 41272.6 41413 41441.2 41441.3
41412.6 41271.4 41272.2 41413 41441.6 41441.5 41413 41272.1 41272.2 41413
41441.5 41441.5 41413 41272.2 41271.9 41412.9 41441.4 41441.4 41412.9 41271.7
41270.8 41412.3 41441 41441.3 41413.2 41273 41267.8 41411.3 41440.9 41441
41401 41190.8 40997.5 40994.2 41188.5 41399.9 41440.1 41440.4 41411.1 41267.4
41272.6 41413 41441.2 41441.3 41412.6 41271.4 41272.2 41413 41441.6 41441.5
41413 41272.1 41272.2 41413 41441.5 41441.5 41413 41272.2 41271.9 41412.9
41441.4 41441.4 41412.9 41271.7 41270.8 41412.3 41441 41441.3 41413.2 41273
41267.8 41411.3 41440.9 41441 41401 41190.8 40997.5 40994.2 41188.5 41399.9
41440.1 41440.4 41411.1 41267.4 41272.6 41413 41441.2 41441.3 41412.6 41271.4
41272.2 41413 41441.6 41441.5 41413 41272.1 41272.2 41413 41441.5 41441.5
41413 41272.2 41271.9 41412.9 41441.4 41441.4 41412.9 41271.7 41270.8 41412.3
41441 41441.3 41413.2 41273 41267.8 41411.3 41440.9 41441 41401 41190.8
40997.5 40994.2 41188.5 41399.9 41440.1 41440.4 41411.1 41267.4 41272.6 41413
41441.2 41441.3 41412.6 41271.4 41272.2 41413 41441.6 41441.5 41413 41272.1
41272.2 41413 41441.5 41441.5 41413 41272.2 41271.9 41412.9 41441.4 41441.4
41412.9 41271.7 41270.8 41412.3 41441 41441.3 41413.2 41273 41267.8 41411.3
41440.9 41441 41401 41190.8 40997.5 40994.2 41188.5 41399.9 41440.1 41440.4
41411.1 41267.4 41272.6 41413 41441.2 41441.3 41412.6 41271.4 41272.2 41413
41441.6 41441.5 41413 41272.1 41272.2 41413 41441.5 41441.5 41413 41272.2
41271.9 41412.9 41441.4 41441.4 41412.9 41271.7 41270.8 41412.3 41441 41441.3
41413.2 41273 41267.8 41411.3 41440.9 41441 41401 41190.8 40997.5 40037.7
40234.7 40628.8 40911.6 40984.7 40888.4 40712.6 40713.7 40893.5 41018.4 41021.3
40901.1 40720.8 40720.2 40899.4 41021.2 41021.6 40900.3 40720.2 40720.1 40899.9
41021.4 41021.4 40900 40720.1 40720.2 40900.4 41021.7 41021.3 40899.5 40720.3
40720.9 40901.1 41021.3 41018.5 40893.7 40714 40712.8 40888.5 40984.9 40912.1
40629.5 40235.6 40038.7 40037.7 40234.7 40628.8 40911.6 40984.7 40888.4 40712.6
40713.7 40893.5 41018.4 41021.3 40901.1 40720.8 40720.2 40899.4 41021.2 41021.6
40900.3 40720.2 40720.1 40899.9 41021.4 41021.4 40900 40720.1 40720.2 40900.4
41021.7 41021.3 40899.5 40720.3 40720.9 40901.1 41021.3 41018.5 40893.7 40714
40712.8 40888.5 40984.9 40912.1 40629.5 40235.6 40038.7 40037.7 40234.7 40628.8
40911.6 40984.7 40888.4 40712.6 40713.7 40893.5 41018.4 41021.3 40901.1 40720.8
40720.2 40899.4 41021.2 41021.6 40900.3 40720.2 40720.1 40899.9 41021.4 41021.4
40900 40720.1 40720.2 40900.4 41021.7 41021.3 40899.5 40720.3 40720.9 40901.1
41021.3 41018.5 40893.7 40714 40712.8 40888.5 40984.9 40912.1 40629.5 40235.6
40038.7 40037.7 40234.7 40628.8 40911.6 40984.7 40888.4 40712.6 40713.7 40893.5
41018.4 41021.3 40901.1 40720.8 40720.2 40899.4 41021.2 41021.6 40900.3 40720.2
40720.1 40899.9 41021.4 41021.4 40900 40720.1 40720.2 40900.4 41021.7 41021.3
40899.5 40720.3 40720.9 40901.1 41021.3 41018.5 40893.7 40714 40712.8 40888.5
40984.9 40912.1 40629.5 40235.6 40038.7 40037.7 40234.7 40628.8 40911.6 40984.7
40888.4 40712.6 40713.7 40893.5 41018.4 41021.3 40901.1 40720.8 40720.2 40899.4
41021.2 41021.6 40900.3 40720.2 40720.1 40899.9 41021.4 41021.4 40900 40720.1
40720.2 40900.4 41021.7 41021.3 40899.5 40720.3 40720.9 40901.1 41021.3 41018.5
40893.7 40714 40712.8 40888.5 40984.9 40912.1 40629.5 40235.6 40038.7 
I 1 660 float
403.772 403.248 401.707 399.701 397.917 398.808 395.284 393.915 392.699 391.636 393.015
390.238 389.462 388.785 388.195 389.94 387.461 386.949 386.432 385.851 387.288
383.913 403.772 403.248 401.707 399.701 397.917 398.808 395.284 393.915 392.699
391.636 393.015 390.238 389.462 388.785 388.195 389.94 387.461 386.949 386.432
385.851 387.288 383.913 403.772 403.248 401.707 399.701 397.917 398.808 395.284
393.915 392.699 391.636 393.015 390.238 389.462 388.785 388.195 389.94 387.461
386.949 386.432 385.851 387.288 383.913 403.772 403.248 401.707 399.701 397.917
398.808 395.284 393.915 392.699 391.636 393.015 390.238 389.462 388.785 388.195
389.94 387.461 386.949 386.432 385.851 387.288 383.913 403.772 403.248 401.707
399.701 397.917 398.808 395.284 393.915 392.699 391.636 393.015 390.238 389.462
388.785 388.195 389.94 387.461 386.949 386.432 385.851 387.288 383.913 401.049
403.194 401.681 399.687 400.223 396.715 395.197 393.835 392.63 393.541 390.991
390.119 389.361 388.702 389.995 387.87 387.338 386.846 386.346 387.699 385.175
383.831 401.049 403.194 401.681 399.687 400.223 396.715 395.197 393.835 392.63
393.541 390.991 390.119 389.361 388.702 389.995 387.87 387.338 386.846 386.346
387.699 385.175 383.831 401.049 403.194 401.681 399.687 400.223 396.715 395.197
393.835 392.63 393.541 390.991 390.119 389.361 388.702 389.995 387.87 387.338
386.846 386.346 387.699 385.175 383.831 401.049 403.194 401.681 399.687 400.223
396.715 395.197 393.835 392.63 393.541 390.991 390.119 389.361 388.702 389.995
387.87 387.338 386.846 386.346 387.699 385.175 383.831 401.049 403.194 401.681
399.687 400.223 396.715 395.197 393.835 392.63 393.541 390.991 390.119 389.361
388.702 389.995 387.87 387.338 386.846 386.346 387.699 385.175 383.831 403.772
412.724 423.585 425.163 424.931 422.67 413.125 413.595 422.798 424.064 422.605
421.308 412.029 412.118 421.353 422.117 422.106 420.816 411.575 411.62 420.828
422.095 422.088 420.801 411.576 411.968 421.222 422.492 422.491 421.199 413.006
412.953 422.257 423.538 423.559 422.254 413.066 412.629 422.163 423.508 422.628
420.953 410.04 401.049 403.772 412.724 423.585 425.163 424.931 422.67 413.125
413.595 422.798 424.064 422.605 421.308 412.029 412.118 421.353 422.117 422.106
420.816 411.575 411.62 420.828 422.095 422.088 420.801 411.576 411.968 421.222
422.492 422.491 421.199 413.006 412.953 422.257 423.538 423.559 422.254 413.066
412.629 422.163 423.508 422.628 420.953 410.04 401.049 403.772 412.724 423.585
425.163 424.931 422.67 413.125 413.595 422.798 424.064 422.605 421.308 412.029
412.118 421.353 422.117 422.106 420.816 411.575 411.62 420.828 422.095 422.088
420.801 411.576 411.968 421.222 422.492 422.491 421.199 413.006 412.953 422.257
423.538 423.559 422.254 413.066 412.629 422.163 423.508 422.628 420.953 410.04
401.049 403.772 412.724 423.585 425.163 424.931 422.67 413.125 413.595 422.798
424.064 422.605 421.308 412.029 412.118 421.353 422.117 422.106 420.816 411.575
411.62 420.828 422.095 422.088 420.801 411.576 411.968 421.222 422.492 422.491
421.199 413.006 412.953 422.257 423.538 423.559 422.254 413.066 412.629 422.163
423.508 422.628 420.953 410.04 401.049 403.772 412.724 423.585 425.163 424.931
422.67 413.125 413.595 422.798 424.064 422.605 421.308 412.029 412.118 421.353
422.117 422.106 420.816 411.575 411.62 420.828 422.095 422.088 420.801 411.576
411.968 421.222 422.492 422.491 421.199 413.006 412.953 422.257 423.538 423.559
422.254 413.066 412.629 422.163 423.508 422.628 420.953 410.04 401.049 383.913
385.697 391.201 399.784 401.55 397.341 392.97 392.818 396.566 401.578 401.792