# vtk DataFile Version 2.0
electrolyteSides
ASCII
DATASET POLYDATA
POINTS 792 float
0.0034137 0 0 0.0034391 0 0 0.0034391 0 0.001 0.0034137 0
0.001 0.0034391 0 0.002 0.0034137 0 0.002 0.0034391 0 0.003
0.0034137 0 0.003 0.0034391 0 0.004 0.0034137 0 0.004 0.0034391
0 0.005 0.0034137 0 0.005 0.0034391 0 0.006 0.0034137 0
0.006 0.0034391 0 0.007 0.0034137 0 0.007 0.0034391 0 0.008
0.0034137 0 0.008 0.0034391 0 0.009 0.0034137 0 0.009 0.0034391
0 0.01 0.0034137 0 0.01 0.0034391 0 0.011 0.0034137 0
0.011 0.0034391 0 0.012 0.0034137 0 0.012 0.0034391 0 0.013
0.0034137 0 0.013 0.0034391 0 0.014 0.0034137 0 0.014 0.0034391
0 0.015 0.0034137 0 0.015 0.0034391 0 0.016 0.0034137 0
0.016 0.0034391 0 0.017 0.0034137 0 0.017 0.0034391 0 0.018
0.0034137 0 0.018 0.0034391 0 0.019 0.0034137 0 0.019 0.0034391
0 0.02 0.0034137 0 0.02 0.0034391 0 0.021 0.0034137 0
0.021 0.0034391 0 0.022 0.0034137 0 0.022 0.0034645 0 0
0.0034645 0 0.001 0.0034645 0 0.002 0.0034645 0 0.003 0.0034645
0 0.004 0.0034645 0 0.005 0.0034645 0 0.006 0.0034645 0
0.007 0.0034645 0 0.008 0.0034645 0 0.009 0.0034645 0 0.01
0.0034645 0 0.011 0.0034645 0 0.012 0.0034645 0 0.013 0.0034645
0 0.014 0.0034645 0 0.015 0.0034645 0 0.016 0.0034645 0
0.017 0.0034645 0 0.018 0.0034645 0 0.019 0.0034645 0 0.02
0.0034645 0 0.021 0.0034645 0 0.022 0.0034899 0 0 0.0034899
0 0.001 0.0034899 0 0.002 0.0034899 0 0.003 0.0034899 0
0.004 0.0034899 0 0.005 0.0034899 0 0.006 0.0034899 0 0.007
0.0034899 0 0.008 0.0034899 0 0.009 0.0034899 0 0.01 0.0034899
0 0.011 0.0034899 0 0.012 0.0034899 0 0.013 0.0034899 0
0.014 0.0034899 0 0.015 0.0034899 0 0.016 0.0034899 0 0.017
0.0034899 0 0.018 0.0034899 0 0.019 0.0034899 0 0.02 0.0034899
0 0.021 0.0034899 0 0.022 0.0035153 0 0 0.0035153 0
0.001 0.0035153 0 0.002 0.0035153 0 0.003 0.0035153 0 0.004
0.0035153 0 0.005 0.0035153 0 0.006 0.0035153 0 0.007 0.0035153
0 0.008 0.0035153 0 0.009 0.0035153 0 0.01 0.0035153 0
0.011 0.0035153 0 0.012 0.0035153 0 0.013 0.0035153 0 0.014
0.0035153 0 0.015 0.0035153 0 0.016 0.0035153 0 0.017 0.0035153
0 0.018 0.0035153 0 0.019 0.0035153 0 0.02 0.0035153 0
0.021 0.0035153 0 0.022 0.0035407 0 0 0.0035407 0 0.001
0.0035407 0 0.002 0.0035407 0 0.003 0.0035407 0 0.004 0.0035407
0 0.005 0.0035407 0 0.006 0.0035407 0 0.007 0.0035407 0
0.008 0.0035407 0 0.009 0.0035407 0 0.01 0.0035407 0 0.011
0.0035407 0 0.012 0.0035407 0 0.013 0.0035407 0 0.014 0.0035407
0 0.015 0.0035407 0 0.016 0.0035407 0 0.017 0.0035407 0
0.018 0.0035407 0 0.019 0.0035407 0 0.02 0.0035407 0 0.021
0.0035407 0 0.022 0.0034137 0.022 0 0.0034137 0.022 0.001 0.0034391
0.022 0.001 0.0034391 0.022 0 0.0034137 0.022 0.002 0.0034391 0.022
0.002 0.0034137 0.022 0.003 0.0034391 0.022 0.003 0.0034137 0.022 0.004
0.0034391 0.022 0.004 0.0034137 0.022 0.005 0.0034391 0.022 0.005 0.0034137
0.022 0.006 0.0034391 0.022 0.006 0.0034137 0.022 0.007 0.0034391 0.022
0.007 0.0034137 0.022 0.008 0.0034391 0.022 0.008 0.0034137 0.022 0.009
0.0034391 0.022 0.009 0.0034137 0.022 0.01 0.0034391 0.022 0.01 0.0034137
0.022 0.011 0.0034391 0.022 0.011 0.0034137 0.022 0.012 0.0034391 0.022
0.012 0.0034137 0.022 0.013 0.0034391 0.022 0.013 0.0034137 0.022 0.014
0.0034391 0.022 0.014 0.0034137 0.022 0.015 0.0034391 0.022 0.015 0.0034137
0.022 0.016 0.0034391 0.022 0.016 0.0034137 0.022 0.017 0.0034391 0.022
0.017 0.0034137 0.022 0.018 0.0034391 0.022 0.018 0.0034137 0.022 0.019
0.0034391 0.022 0.019 0.0034137 0.022 0.02 0.0034391 0.022 0.02 0.0034137
0.022 0.021 0.0034391 0.022 0.021 0.0034137 0.022 0.022 0.0034391 0.022
0.022 0.0034645 0.022 0.001 0.0034645 0.022 0 0.0034645 0.022 0.002
0.0034645 0.022 0.003 0.0034645 0.022 0.004 0.0034645 0.022 0.005 0.0034645
0.022 0.006 0.0034645 0.022 0.007 0.0034645 0.022 0.008 0.0034645 0.022
0.009 0.0034645 0.022 0.01 0.0034645 0.022 0.011 0.0034645 0.022 0.012
0.0034645 0.022 0.013 0.0034645 0.022 0.014 0.0034645 0.022 0.015 0.0034645
0.022 0.016 0.0034645 0.022 0.017 0.0034645 0.022 0.018 0.0034645 0.022
0.019 0.0034645 0.022 0.02 0.0034645 0.022 0.021 0.0034645 0.022 0.022
0.0034899 0.022 0.001 0.0034899 0.022 0 0.0034899 0.022 0.002 0.0034899
0.022 0.003 0.0034899 0.022 0.004 0.0034899 0.022 0.005 0.0034899 0.022
0.006 0.0034899 0.022 0.007 0.0034899 0.022 0.008 0.0034899 0.022 0.009
0.0034899 0.022 0.01 0.0034899 0.022 0.011 0.0034899 0.022 0.012 0.0034899
0.022 0.013 0.0034899 0.022 0.014 0.0034899 0.022 0.015 0.0034899 0.022
0.016 0.0034899 0.022 0.017 0.0034899 0.022 0.018 0.0034899 0.022 0.019
0.0034899 0.022 0.02 0.0034899 0.022 0.021 0.0034899 0.022 0.022 0.0035153
0.022 0.001 0.0035153 0.022 0 0.0035153 0.022 0.002 0.0035153 0.022
0.003 0.0035153 0.022 0.004 0.0035153 0.022 0.005 0.0035153 0.022 0.006
0.0035153 0.022 0.007 0.0035153 0.022 0.008 0.0035153 0.022 0.009 0.0035153
0.022 0.01 0.0035153 0.022 0.011 0.0035153 0.022 0.012 0.0035153 0.022
0.013 0.0035153 0.022 0.014 0.0035153 0.022 0.015 0.0035153 0.022 0.016
0.0035153 0.022 0.017 0.0035153 0.022 0.018 0.0035153 0.022 0.019 0.0035153
0.022 0.02 0.0035153 0.022 0.021 0.0035153 0.022 0.022 0.0035407 0.022
0.001 0.0035407 0.022 0 0.0035407 0.022 0.002 0.0035407 0.022 0.003
0.0035407 0.022 0.004 0.0035407 0.022 0.005 0.0035407 0.022 0.006 0.0035407
0.022 0.007 0.0035407 0.022 0.008 0.0035407 0.022 0.009 0.0035407 0.022
0.01 0.0035407 0.022 0.011 0.0035407 0.022 0.012 0.0035407 0.022 0.013
0.0035407 0.022 0.014 0.0035407 0.022 0.015 0.0035407 0.022 0.016 0.0035407
0.022 0.017 0.0035407 0.022 0.018 0.0035407 0.022 0.019 0.0035407 0.022
0.02 0.0035407 0.022 0.021 0.0035407 0.022 0.022 0.0034137 0.0005 0
0.0034391 0.0005 0 0.0034137 0.001 0 0.0034391 0.001 0 0.0034137
0.0015 0 0.0034391 0.0015 0 0.0034137 0.002 0 0.0034391 0.002
0 0.0034137 0.0025 0 0.0034391 0.0025 0 0.0034137 0.003 0
0.0034391 0.003 0 0.0034137 0.0035 0 0.0034391 0.0035 0 0.0034137
0.004 0 0.0034391 0.004 0 0.0034137 0.0045 0 0.0034391 0.0045
0 0.0034137 0.005 0 0.0034391 0.005 0 0.0034137 0.0055 0
0.0034391 0.0055 0 0.0034137 0.006 0 0.0034391 0.006 0 0.0034137
0.0065 0 0.0034391 0.0065 0 0.0034137 0.007 0 0.0034391 0.007
0 0.0034137 0.0075 0 0.0034391 0.0075 0 0.0034137 0.008 0
0.0034391 0.008 0 0.0034137 0.0085 0 0.0034391 0.0085 0 0.0034137
0.009 0 0.0034391 0.009 0 0.0034137 0.0095 0 0.0034391 0.0095
0 0.0034137 0.01 0 0.0034391 0.01 0 0.0034137 0.0105 0
0.0034391 0.0105 0 0.0034137 0.011 0 0.0034391 0.011 0 0.0034137
0.0115 0 0.0034391 0.0115 0 0.0034137 0.012 0 0.0034391 0.012
0 0.0034137 0.0125 0 0.0034391 0.0125 0 0.0034137 0.013 0
0.0034391 0.013 0 0.0034137 0.0135 0 0.0034391 0.0135 0 0.0034137
0.014 0 0.0034391 0.014 0 0.0034137 0.0145 0 0.0034391 0.0145
0 0.0034137 0.015 0 0.0034391 0.015 0 0.0034137 0.0155 0
0.0034391 0.0155 0 0.0034137 0.016 0 0.0034391 0.016 0 0.0034137
0.0165 0 0.0034391 0.0165 0 0.0034137 0.017 0 0.0034391 0.017
0 0.0034137 0.0175 0 0.0034391 0.0175 0 0.0034137 0.018 0
0.0034391 0.018 0 0.0034137 0.0185 0 0.0034391 0.0185 0 0.0034137
0.019 0 0.0034391 0.019 0 0.0034137 0.0195 0 0.0034391 0.0195
0 0.0034137 0.02 0 0.0034391 0.02 0 0.0034137 0.0205 0
0.0034391 0.0205 0 0.0034137 0.021 0 0.0034391 0.021 0 0.0034137
0.0215 0 0.0034391 0.0215 0 0.0034645 0.0005 0 0.0034645 0.001
0 0.0034645 0.0015 0 0.0034645 0.002 0 0.0034645 0.0025 0
0.0034645 0.003 0 0.0034645 0.0035 0 0.0034645 0.004 0 0.0034645
0.0045 0 0.0034645 0.005 0 0.0034645 0.0055 0 0.0034645 0.006
0 0.0034645 0.0065 0 0.0034645 0.007 0 0.0034645 0.0075 0
0.0034645 0.008 0 0.0034645 0.0085 0 0.0034645 0.009 0 0.0034645
0.0095 0 0.0034645 0.01 0 0.0034645 0.0105 0 0.0034645 0.011
0 0.0034645 0.0115 0 0.0034645 0.012 0 0.0034645 0.0125 0
0.0034645 0.013 0 0.0034645 0.0135 0 0.0034645 0.014 0 0.0034645
0.0145 0 0.0034645 0.015 0 0.0034645 0.0155 0 0.0034645 0.016
0 0.0034645 0.0165 0 0.0034645 0.017 0 0.0034645 0.0175 0
0.0034645 0.018 0 0.0034645 0.0185 0 0.0034645 0.019 0 0.0034645
0.0195 0 0.0034645 0.02 0 0.0034645 0.0205 0 0.0034645 0.021
0 0.0034645 0.0215 0 0.0034899 0.0005 0 0.0034899 0.001 0
0.0034899 0.0015 0 0.0034899 0.002 0 0.0034899 0.0025 0 0.0034899
0.003 0 0.0034899 0.0035 0 0.0034899 0.004 0 0.0034899 0.0045
0 0.0034899 0.005 0 0.0034899 0.0055 0 0.0034899 0.006 0
0.0034899 0.0065 0 0.0034899 0.007 0 0.0034899 0.0075 0 0.0034899
0.008 0 0.0034899 0.0085 0 0.0034899 0.009 0 0.0034899 0.0095
0 0.0034899 0.01 0 0.0034899 0.0105 0 0.0034899 0.011 0
0.0034899 0.0115 0 0.0034899 0.012 0 0.0034899 0.0125 0 0.0034899
0.013 0 0.0034899 0.0135 0 0.0034899 0.014 0 0.0034899 0.0145
0 0.0034899 0.015 0 0.0034899 0.0155 0 0.0034899 0.016 0
0.0034899 0.0165 0 0.0034899 0.017 0 0.0034899 0.0175 0 0.0034899
0.018 0 0.0034899 0.0185 0 0.0034899 0.019 0 0.0034899 0.0195
0 0.0034899 0.02 0 0.0034899 0.0205 0 0.0034899 0.021 0
0.0034899 0.0215 0 0.0035153 0.0005 0 0.0035153 0.001 0 0.0035153
0.0015 0 0.0035153 0.002 0 0.0035153 0.0025 0 0.0035153 0.003
0 0.0035153 0.0035 0 0.0035153 0.004 0 0.0035153 0.0045 0
0.0035153 0.005 0 0.0035153 0.0055 0 0.0035153 0.006 0 0.0035153
0.0065 0 0.0035153 0.007 0 0.0035153 0.0075 0 0.0035153 0.008
0 0.0035153 0.0085 0 0.0035153 0.009 0 0.0035153 0.0095 0
0.0035153 0.01 0 0.0035153 0.0105 0 0.0035153 0.011 0 0.0035153
0.0115 0 0.0035153 0.012 0 0.0035153 0.0125 0 0.0035153 0.013
0 0.0035153 0.0135 0 0.0035153 0.014 0 0.0035153 0.0145 0
0.0035153 0.015 0 0.0035153 0.0155 0 0.0035153 0.016 0 0.0035153
0.0165 0 0.0035153 0.017 0 0.0035153 0.0175 0 0.0035153 0.018
0 0.0035153 0.0185 0 0.0035153 0.019 0 0.0035153 0.0195 0
0.0035153 0.02 0 0.0035153 0.0205 0 0.0035153 0.021 0 0.0035153
0.0215 0 0.0035407 0.0005 0 0.0035407 0.001 0 0.0035407 0.0015
0 0.0035407 0.002 0 0.0035407 0.0025 0 0.0035407 0.003 0
0.0035407 0.0035 0 0.0035407 0.004 0 0.0035407 0.0045 0 0.0035407
0.005 0 0.0035407 0.0055 0 0.0035407 0.006 0 0.0035407 0.0065
0 0.0035407 0.007 0 0.0035407 0.0075 0 0.0035407 0.008 0
0.0035407 0.0085 0 0.0035407 0.009 0 0.0035407 0.0095 0 0.0035407
0.01 0 0.0035407 0.0105 0 0.0035407 0.011 0 0.0035407 0.0115
0 0.0035407 0.012 0 0.0035407 0.0125 0 0.0035407 0.013 0
[...]
CELL_DATA 660
FIELD attributes 16
patchID 1 660 float
0 0 0 0 0 0 0 0 0 0 0
0 0 0 0 0 0 0 0 0 0
0 0 0 0 0 0 0 0 0 0
0 0 0 0 0 0 0 0 0 0
0 0 0 0 0 0 0 0 0 0
0 0 0 0 0 0 0 0 0 0
0 0 0 0 0 0 0 0 0 0
0 0 0 0 0 0 0 0 0 0
0 0 0 0 0 0 0 0 0 0
0 0 0 0 0 0 0 0 0 0
0 0 0 0 0 0 0 0 0 0
0 0 0 0 0 0 0 0 0 0
0 0 0 0 0 0 0 0 0 0
0 0 0 0 0 0 0 0 0 0
0 0 0 0 0 0 0 0 0 0
0 0 0 0 0 0 0 0 0 0
0 0 0 0 0 0 0 0 0 0
0 0 0 0 0 0 0 0 0 0
0 0 0 0 0 0 0 0 0 0
0 0 0 0 0 0 0 0 0 0
0 0 0 0 0 0 0 0 0 0
0 0 0 0 0 0 0 0 0 0
0 0 0 0 0 0 0 0 0 0
0 0 0 0 0 0 0 0 0 0
0 0 0 0 0 0 0 0 0 0
0 0 0 0 0 0 0 0 0 0
0 0 0 0 0 0 0 0 0 0
0 0 0 0 0 0 0 0 0 0
0 0 0 0 0 0 0 0 0 0
0 0 0 0 0 0 0 0 0 0
0 0 0 0 0 0 0 0 0 0
0 0 0 0 0 0 0 0 0 0
0 0 0 0 0 0 0 0 0 0
0 0 0 0 0 0 0 0 0 0
0 0 0 0 0 0 0 0 0 0
0 0 0 0 0 0 0 0 0 0
0 0 0 0 0 0 0 0 0 0
0 0 0 0 0 0 0 0 0 0
0 0 0 0 0 0 0 0 0 0
0 0 0 0 0 0 0 0 0 0
0 0 0 0 0 0 0 0 0 0
0 0 0 0 0 0 0 0 0 0
0 0 0 0 0 0 0 0 0 0
0 0 0 0 0 0 0 0 0 0
0 0 0 0 0 0 0 0 0 0
0 0 0 0 0 0 0 0 0 0
0 0 0 0 0 0 0 0 0 0
0 0 0 0 0 0 0 0 0 0
0 0 0 0 0 0 0 0 0 0
0 0 0 0 0 0 0 0 0 0
0 0 0 0 0 0 0 0 0 0
0 0 0 0 0 0 0 0 0 0
0 0 0 0 0 0 0 0 0 0
0 0 0 0 0 0 0 0 0 0
0 0 0 0 0 0 0 0 0 0
0 0 0 0 0 0 0 0 0 0
0 0 0 0 0 0 0 0 0 0
0 0 0 0 0 0 0 0 0 0
0 0 0 0 0 0 0 0 0 0
0 0 0 0 0 0 0 0 0 0
0 0 0 0 0 0 0 0 0 0
0 0 0 0 0 0 0 0 0 0
0 0 0 0 0 0 0 0 0 0
0 0 0 0 0 0 0 0 0 0
0 0 0 0 0 0 0 0 0 0
0 0 0 0 0 0 0 0 0 
electrochemicalHeating 1 660 float
206178 204868 203825 202632 201577 201670 199965 199169 198469 197856 198271
197004 196553 196155 195805 196413 195330 195037 194747 194438 194928
193421 206178 204868 203825 202632 201577 201670 199965 199169 198469
197856 198271 197004 196553 196155 195805 196413 195330 195037 194747
194438 194928 193421 206178 204868 203825 202632 201577 201670 199965
199169 198469 197856 198271 197004 196553 196155 195805 196413 195330
195037 194747 194438 194928 193421 206178 204868 203825 202632 201577
201670 199965 199169 198469 197856 198271 197004 196553 196155 195805
196413 195330 195037 194747 194438 194928 193421 206178 204868 203825
202632 201577 201670 199965 199169 198469 197856 198271 197004 196553
196155 195805 196413 195330 195037 194747 194438 194928 193421 205067
204857 203820 202632 202496 200821 199930 199138 198442 198628 197458
196954 196511 196122 196525 195587 195278 194994 194712 195170 194089
193392 205067 204857 203820 202632 202496 200821 199930 199138 198442
198628 197458 196954 196511 196122 196525 195587 195278 194994 194712
195170 194089 193392 205067 204857 203820 202632 202496 200821 199930
199138 198442 198628 197458 196954 196511 196122 196525 195587 195278
194994 194712 195170 194089 193392 205067 204857 203820 202632 202496
200821 199930 199138 198442 198628 197458 196954 196511 196122 196525
195587 195278 194994 194712 195170 194089 193392 205067 204857 203820
202632 202496 200821 199930 199138 198442 198628 197458 196954 196511
196122 196525 195587 195278 194994 194712 195170 194089 193392 206178
210685 215521 216024 215834 214964 210141 210426 215023 215462 214877
214419 209733 209822 214450 214673 214663 214216 209562 209596 214224
214657 214654 214214 209580 209735 214394 214833 214839 214394 210201
210124 214821 215273 215290 214836 210243 209971 214790 215291 215022
214476 209607 205067 206178 210685 215521 216024 215834 214964 210141
210426 215023 215462 214877 214419 209733 209822 214450 214673 214663
214216 209562 209596 214224 214657 214654 214214 209580 209735 214394
214833 214839 214394 210201 210124 214821 215273 215290 214836 210243
209971 214790 215291 215022 214476 209607 205067 206178 210685 215521
216024 215834 214964 210141 210426 215023 215462 214877 214419 209733
209822 214450 214673 214663 214216 209562 209596 214224 214657 214654
214214 209580 209735 214394 214833 214839 214394 210201 210124 214821
215273 215290 214836 210243 209971 214790 215291 215022 214476 209607
205067 206178 210685 215521 216024 215834 214964 210141 210426 215023
215462 214877 214419 209733 209822 214450 214673 214663 214216 209562
209596 214224 214657 214654 214214 209580 209735 214394 214833 214839
214394 210201 210124 214821 215273 215290 214836 210243 209971 214790
215291 215022 214476 209607 205067 206178 210685 215521 216024 215834
214964 210141 210426 215023 215462 214877 214419 209733 209822 214450
214673 214663 214216 209562 209596 214224 214657 214654 214214 209580
209735 214394 214833 214839 214394 210201 210124 214821 215273 215290
214836 210243 209971 214790 215291 215022 214476 209607 205067 193421
194309 196896 200893 202522 200536 198438 198285 199996 202474 202692
200402 198379 198336 200235 202695 203009 200552 198578 198579 200545
202986 202964 200496 198553 198604 200345 202774 202671 200185 198308
198298 200341 202706 202443 199938 198244 198441 200544 202478 200780
196844 194288 193392 193421 194309 196896 200893 202522 200536 198438
198285 199996 202474 202692 200402 198379 198336 200235 202695 203009
200552 198578 198579 200545 202986 202964 200496 198553 198604 200345
202774 202671 200185 198308 198298 200341 202706 202443 199938 198244
198441 200544 202478 200780 196844 194288 193392 193421 194309 196896
200893 202522 200536 198438 198285 199996 202474 202692 200402 198379
198336 200235 202695 203009 200552 198578 198579 200545 202986 202964
200496 198553 198604 200345 202774 202671 200185 198308 198298 200341
202706 202443 199938 198244 198441 200544 202478 200780 196844 194288
193392 193421 194309 196896 200893 202522 200536 198438 198285 199996
202474 202692 200402 198379 198336 200235 202695 203009 200552 198578
198579 200545 202986 202964 200496 198553 198604 200345 202774 202671
200185 198308 198298 200341 202706 202443 199938 198244 198441 200544
202478 200780 196844 194288 193392 193421 194309 196896 200893 202522
200536 198438 198285 199996 202474 202692 200402 198379 198336 200235
202695 203009 200552 198578 198579 200545 202986 202964 200496 198553
198604 200345 202774 202671 200185 198308 198298 200341 202706 202443
199938 198244 198441 200544 202478 200780 196844 194288 193392 
concMe 1 660 float
28.7522 28.7512 28.744 28.7346 28.7251 28.7155 28.7059 28.6964 28.6873 28.6786 28.6703
28.6626 28.6553 28.6483 28.6418 28.6356 28.6298 28.6241 28.6182 28.6115 28.6019
28.5858 28.7522 28.7512 28.744 28.7346 28.7251 28.7155 28.7059 28.6964 28.6873
28.6786 28.6703 28.6626 28.6553 28.6483 28.6418 28.6356 28.6298 28.6241 28.6182
28.6115 28.6019 28.5858 28.7522 28.7512 28.744 28.7346 28.7251 28.7155 28.7059
28.6964 28.6873 28.6786 28.6703 28.6626 28.6553 28.6483 28.6418 28.6356 28.6298
28.6241 28.6182 28.6115 28.6019 28.5858 28.7522 28.7512 28.744 28.7346 28.7251
28.7155 28.7059 28.6964 28.6873 28.6786 28.6703 28.6626 28.6553 28.6483 28.6418
28.6356 28.6298 28.6241 28.6182 28.6115 28.6019 28.5858 28.7522 28.7512 28.744
28.7346 28.7251 28.7155 28.7059 28.6964 28.6873 28.6786 28.6703 28.6626 28.6553
28.6483 28.6418 28.6356 28.6298 28.6241 28.6182 28.6115 28.6019 28.5858 28.7525
28.7513 28.7441 28.7347 28.7251 28.7156 28.706 28.6965 28.6874 28.6786 28.6704
28.6627 28.6553 28.6484 28.6418 28.6358 28.6299 28.6243 28.6183 28.6115 28.6021
28.5859 28.7525 28.7513 28.7441 28.7347 28.7251 28.7156 28.706 28.6965 28.6874
28.6786 28.6704 28.6627 28.6553 28.6484 28.6418 28.6358 28.6299 28.6243 28.6183
28.6115 28.6021 28.5859 28.7525 28.7513 28.7441 28.7347 28.7251 28.7156 28.706
28.6965 28.6874 28.6786 28.6704 28.6627 28.6553 28.6484 28.6418 28.6358 28.6299
28.6243 28.6183 28.6115 28.6021 28.5859 28.7525 28.7513 28.7441 28.7347 28.7251
28.7156 28.706 28.6965 28.6874 28.6786 28.6704 28.6627 28.6553 28.6484 28.6418
28.6358 28.6299 28.6243 28.6183 28.6115 28.6021 28.5859 28.7525 28.7513 28.7441
28.7347 28.7251 28.7156 28.706 28.6965 28.6874 28.6786 28.6704 28.6627 28.6553
28.6484 28.6418 28.6358 28.6299 28.6243 28.6183 28.6115 28.6021 28.5859 28.7522
28.7756 28.7922 28.7946 28.7943 28.7922 28.7757 28.7768 28.7924 28.7944 28.7944
28.7924 28.7765 28.7768 28.7925 28.7945 28.7945 28.7925 28.7767 28.7768 28.7925
28.7945 28.7945 28.7925 28.7768 28.7767 28.7925 28.7945 28.7945 28.7925 28.7768
28.7764 28.7924 28.7944 28.7944 28.7924 28.7769 28.7758 28.7922 28.7943 28.7947
28.7924 28.7757 28.7525 28.7522 28.7756 28.7922 28.7946 28.7943 28.7922 28.7757
28.7768 28.7924 28.7944 28.7944 28.7924 28.7765 28.7768 28.7925 28.7945 28.7945
28.7925 28.7767 28.7768 28.7925 28.7945 28.7945 28.7925 28.7768 28.7767 28.7925
28.7945 28.7945 28.7925 28.7768 28.7764 28.7924 28.7944 28.7944 28.7924 28.7769
28.7758 28.7922 28.7943 28.7947 28.7924 28.7757 28.7525 28.7522 28.7756 28.7922
28.7946 28.7943 28.7922 28.7757 28.7768 28.7924 28.7944 28.7944 28.7924 28.7765
28.7768 28.7925 28.7945 28.7945 28.7925 28.7767 28.7768 28.7925 28.7945 28.7945
28.7925 28.7768 28.7767 28.7925 28.7945 28.7945 28.7925 28.7768 28.7764 28.7924
28.7944 28.7944 28.7924 28.7769 28.7758 28.7922 28.7943 28.7947 28.7924 28.7757
28.7525 28.7522 28.7756 28.7922 28.7946 28.7943 28.7922 28.7757 28.7768 28.7924
28.7944 28.7944 28.7924 28.7765 28.7768 28.7925 28.7945 28.7945 28.7925 28.7767
28.7768 28.7925 28.7945 28.7945 28.7925 28.7768 28.7767 28.7925 28.7945 28.7945
28.7925 28.7768 28.7764 28.7924 28.7944 28.7944 28.7924 28.7769 28.7758 28.7922
28.7943 28.7947 28.7924 28.7757 28.7525 28.7522 28.7756 28.7922 28.7946 28.7943
28.7922 28.7757 28.7768 28.7924 28.7944 28.7944 28.7924 28.7765 28.7768 28.7925
28.7945 28.7945 28.7925 28.7767 28.7768 28.7925 28.7945 28.7945 28.7925 28.7768
28.7767 28.7925 28.7945 28.7945 28.7925 28.7768 28.7764 28.7924 28.7944 28.7944
28.7924 28.7769 28.7758 28.7922 28.7943 28.7947 28.7924 28.7757 28.7525 28.5858
28.6068 28.6546 28.708 28.724 28.7051 28.68 28.6775 28.6986 28.7237 28.7258
28.7027 28.6779 28.6769 28.7003 28.7248 28.7255 28.7015 28.6772 28.6768 28.7009
28.7251 28.7251 28.7009 28.6768 28.6772 28.7016 28.7255 28.7248 28.7003 28.677
28.6779 28.7027 28.7258 28.7237 28.6986 28.6776 28.68 28.7051 28.724 28.708
28.6547 28.6069 28.5859 28.5858 28.6068 28.6546 28.708 28.724 28.7051 28.68
28.6775 28.6986 28.7237 28.7258 28.7027 28.6779 28.6769 28.7003 28.7248 28.7255
28.7015 28.6772 28.6768 28.7009 28.7251 28.7251 28.7009 28.6768 28.6772 28.7016
28.7255 28.7248 28.7003 28.677 28.6779 28.7027 28.7258 28.7237 28.6986 28.6776
28.68 28.7051 28.724 28.708 28.6547 28.6069 28.5859 28.5858 28.6068 28.6546
28.708 28.724 28.7051 28.68 28.6775 28.6986 28.7237 28.7258 28.7027 28.6779
28.6769 28.7003 28.7248 28.7255 28.7015 28.6772 28.6768 28.7009 28.7251 28.7251
28.7009 28.6768 28.6772 28.7016 28.7255 28.7248 28.7003 28.677 28.6779 28.7027
28.7258 28.7237 28.6986 28.6776 28.68 28.7051 28.724 28.708 28.6547 28.6069
28.5859 28.5858 28.6068 28.6546 28.708 28.724 28.7051 28.68 28.6775 28.6986
28.7237 28.7258 28.7027 28.6779 28.6769 28.7003 28.7248 28.7255 28.7015 28.6772
28.6768 28.7009 28.7251 28.7251 28.7009 28.6768 28.6772 28.7016 28.7255 28.7248
28.7003 28.677 28.6779 28.7027 28.7258 28.7237 28.6986 28.6776 28.68 28.7051
28.724 28.708 28.6547 28.6069 28.5859 28.5858 28.6068 28.6546 28.708 28.724
28.7051 28.68 28.6775 28.6986 28.7237 28.7258 28.7027 28.6779 28.6769 28.7003
28.7248 28.7255 28.7015 28.6772 28.6768 28.7009 28.7251 28.7251 28.7009 28.6768
28.6772 28.7016 28.7255 28.7248 28.7003 28.677 28.6779 28.7027 28.7258 28.7237
28.6986 28.6776 28.68 28.7051 28.724 28.708 28.6547 28.6069 28.5859 
iLC 1 660 float
41060.3 41015 40942.1 40858 40779.7 40707.8 40645.3 40590.1 40541.9 40499.4 40461
40428.2 40398.7 40372 40347.6 40323.6 40302.2 40280 40253.9 40218.3 40150.2
40050.4 41060.3 41015 40942.1 40858 40779.7 40707.8 40645.3 40590.1 40541.9
40499.4 40461 40428.2 40398.7 40372 40347.6 40323.6 40302.2 40280 40253.9
40218.3 40150.2 40050.4 41060.3 41015 40942.1 40858 40779.7 40707.8 40645.3
40590.1 40541.9 40499.4 40461 40428.2 40398.7 40372 40347.6 40323.6 40302.2
40280 40253.9 40218.3 40150.2 40050.4 41060.3 41015 40942.1 40858 40779.7
40707.8 40645.3 40590.1 40541.9 40499.4 40461 40428.2 40398.7 40372 40347.6
40323.6 40302.2 40280 40253.9 40218.3 40150.2 40050.4 41060.3 41015 40942.1
40858 40779.7 40707.8 40645.3 40590.1 40541.9 40499.4 40461 40428.2 40398.7
40372 40347.6 40323.6 40302.2 40280 40253.9 40218.3 40150.2 40050.4 41063
41016.4 40943.1 40858.8 40779.3 40708.9 40646 40590.8 40542.4 40499.1 40462
40429 40399.4 40372.6 40347.3 40324.8 40303.1 40280.7 40254.6 40218 40151.6
40051.4 41063 41016.4 40943.1 40858.8 40779.3 40708.9 40646 40590.8 40542.4
40499.1 40462 40429 40399.4 40372.6 40347.3 40324.8 40303.1 40280.7 40254.6
40218 40151.6 40051.4 41063 41016.4 40943.1 40858.8 40779.3 40708.9 40646
40590.8 40542.4 40499.1 40462 40429 40399.4 40372.6 40347.3 40324.8 40303.1
40280.7 40254.6 40218 40151.6 40051.4 41063 41016.4 40943.1 40858.8 40779.3
40708.9 40646 40590.8 40542.4 40499.1 40462 40429 40399.4 40372.6 40347.3
40324.8 40303.1 40280.7 40254.6 40218 40151.6 40051.4 41063 41016.4 40943.1
40858.8 40779.3 40708.9 40646 40590.8 40542.4 40499.1 40462 40429 40399.4
40372.6 40347.3 40324.8 40303.1 40280.7 40254.6 40218 40151.6 40051.4 41060.3
41232.4 41401.6 41433.1 41432.1 41406.5 41278.8 41284 41408.2 41432.4 41432.4
41407.8 41282.3 41283.3 41408.1 41432.7 41432.6 41408.1 41283.1 41283.1 41408.1
41432.6 41432.6 41408.1 41283.1 41282.9 41408 41432.5 41432.6 41408.1 41282.9
41281.7 41407.4 41432.2 41432.5 41408.4 41284.3 41279.1 41406.7 41432.5 41433.8
41402.6 41234.2 41063 41060.3 41232.4 41401.6 41433.1 41432.1 41406.5 41278.8
41284 41408.2 41432.4 41432.4 41407.8 41282.3 41283.3 41408.1 41432.7 41432.6
41408.1 41283.1 41283.1 41408.1 41432.6 41432.6 41408.1 41283.1 41282.9 41408
41432.5 41432.6 41408.1 41282.9 41281.7 41407.4 41432.2 41432.5 41408.4 41284.3
41279.1 41406.7 41432.5 41433.8 41402.6 41234.2 41063 41060.3 41232.4 41401.6
41433.1 41432.1 41406.5 41278.8 41284 41408.2 41432.4 41432.4 41407.8 41282.3
41283.3 41408.1 41432.7 41432.6 41408.1 41283.1 41283.1 41408.1 41432.6 41432.6
41408.1 41283.1 41282.9 41408 41432.5 41432.6 41408.1 41282.9 41281.7 41407.4
41432.2 41432.5 41408.4 41284.3 41279.1 41406.7 41432.5 41433.8 41402.6 41234.2
41063 41060.3 41232.4 41401.6 41433.1 41432.1 41406.5 41278.8 41284 41408.2
41432.4 41432.4 41407.8 41282.3 41283.3 41408.1 41432.7 41432.6 41408.1 41283.1
41283.1 41408.1 41432.6 41432.6 41408.1 41283.1 41282.9 41408 41432.5 41432.6
41408.1 41282.9 41281.7 41407.4 41432.2 41432.5 41408.4 41284.3 41279.1 41406.7
41432.5 41433.8 41402.6 41234.2 41063 41060.3 41232.4 41401.6 41433.1 41432.1
41406.5 41278.8 41284 41408.2 41432.4 41432.4 41407.8 41282.3 41283.3 41408.1
41432.7 41432.6 41408.1 41283.1 41283.1 41408.1 41432.6 41432.6 41408.1 41283.1
41282.9 41408 41432.5 41432.6 41408.1 41282.9 41281.7 41407.4 41432.2 41432.5
41408.4 41284.3 41279.1 41406.7 41432.5 41433.8 41402.6 41234.2 41063 40050.4
40225.4 40588.3 40863.2 40953.6 40872.3 40709.7 40710.7 40877.4 40991.3 40995
40885.7 40718.1 40717.5 40884.3 40995.2 40995.4 40884.9 40717.4 40717.4 40884.8
40995.5 40995.5 40884.9 40717.4 40717.4 40885 40995.6 40995.2 40884.4 40717.6
40718.1 40885.7 40995 40991.4 40877.6 40710.9 40709.9 40872.5 40953.9 40863.6
40589 40226.3 40051.4 40050.4 40225.4 40588.3 40863.2 40953.6 40872.3 40709.7
40710.7 40877.4 40991.3 40995 40885.7 40718.1 40717.5 40884.3 40995.2 40995.4
40884.9 40717.4 40717.4 40884.8 40995.5 40995.5 40884.9 40717.4 40717.4 40885
40995.6 40995.2 40884.4 40717.6 40718.1 40885.7 40995 40991.4 40877.6 40710.9
40709.9 40872.5 40953.9 40863.6 40589 40226.3 40051.4 40050.4 40225.4 40588.3
40863.2 40953.6 40872.3 40709.7 40710.7 40877.4 40991.3 40995 40885.7 40718.1
40717.5 40884.3 40995.2 40995.4 40884.9 40717.4 40717.4 40884.8 40995.5 40995.5
40884.9 40717.4 40717.4 40885 40995.6 40995.2 40884.4 40717.6 40718.1 40885.7
40995 40991.4 40877.6 40710.9 40709.9 40872.5 40953.9 40863.6 40589 40226.3
40051.4 40050.4 40225.4 40588.3 40863.2 40953.6 40872.3 40709.7 40710.7 40877.4
40991.3 40995 40885.7 40718.1 40717.5 40884.3 40995.2 40995.4 40884.9 40717.4
40717.4 40884.8 40995.5 40995.5 40884.9 40717.4 40717.4 40885 40995.6 40995.2
40884.4 40717.6 40718.1 40885.7 40995 40991.4 40877.6 40710.9 40709.9 40872.5
40953.9 40863.6 40589 40226.3 40051.4 40050.4 40225.4 40588.3 40863.2 40953.6
40872.3 40709.7 40710.7 40877.4 40991.3 40995 40885.7 40718.1 40717.5 40884.3
40995.2 40995.4 40884.9 40717.4 40717.4 40884.8 40995.5 40995.5 40884.9 40717.4
40717.4 40885 40995.6 40995.2 40884.4 40717.6 40718.1 40885.7 40995 40991.4
40877.6 40710.9 40709.9 40872.5 40953.9 40863.6 40589 40226.3 40051.4 
I 1 660 float
407.316 404.466 402.679 400.64 398.839 399.572 396.18 394.812 393.608 392.557 393.825
391.178 390.398 389.712 389.111 390.723 388.365 387.858 387.359 386.829 388.267
385.154 407.316 404.466 402.679 400.64 398.839 399.572 396.18 394.812 393.608
392.557 393.825 391.178 390.398 389.712 389.111 390.723 388.365 387.858 387.359
386.829 388.267 385.154 407.316 404.466 402.679 400.64 398.839 399.572 396.18
394.812 393.608 392.557 393.825 391.178 390.398 389.712 389.111 390.723 388.365
387.858 387.359 386.829 388.267 385.154 407.316 404.466 402.679 400.64 398.839
399.572 396.18 394.812 393.608 392.557 393.825 391.178 390.398 389.712 389.111
390.723 388.365 387.858 387.359 386.829 388.267 385.154 407.316 404.466 402.679
400.64 398.839 399.572 396.18 394.812 393.608 392.557 393.825 391.178 390.398
389.712 389.111 390.723 388.365 387.858 387.359 386.829 388.267 385.154 404.794
404.431 402.659 400.629 400.907 397.63 396.098 394.737 393.543 394.324 391.935
391.064 390.3 389.63 390.785 388.781 388.246 387.756 387.273 388.555 386.276
385.087 404.794 404.431 402.659 400.629 400.907 397.63 396.098 394.737 393.543
394.324 391.935 391.064 390.3 389.63 390.785 388.781 388.246 387.756 387.273
388.555 386.276 385.087 404.794 404.431 402.659 400.629 400.907 397.63 396.098
394.737 393.543 394.324 391.935 391.064 390.3 389.63 390.785 388.781 388.246
387.756 387.273 388.555 386.276 385.087 404.794 404.431 402.659 400.629 400.907
397.63 396.098 394.737 393.543 394.324 391.935 391.064 390.3 389.63 390.785
388.781 388.246 387.756 387.273 388.555 386.276 385.087 404.794 404.431 402.659
400.629 400.907 397.63 396.098 394.737 393.543 394.324 391.935 391.064 390.3
389.63 390.785 388.781 388.246 387.756 387.273 388.555 386.276 385.087 407.316
414.991 423.237 424.087 423.754 422.026 413.772 414.263 422.13 422.889 421.607
420.811 412.794 412.95 420.869 421.172 421.155 420.377 412.417 412.479 420.394
421.143 421.138 420.372 412.444 412.786 420.757 421.517 421.526 420.751 413.797
413.671 421.707 422.489 422.517 421.72 413.862 413.401 421.646 422.511 421.828
420.88 412.551 404.794 407.316 414.991 423.237 424.087 423.754 422.026 413.772
414.263 422.13 422.889 421.607 420.811 412.794 412.95 420.869 421.172 421.155
420.377 412.417 412.479 420.394 421.143 421.138 420.372 412.444 412.786 420.757
421.517 421.526 420.751 413.797 413.671 421.707 422.489 422.517 421.72 413.862
413.401 421.646 422.511 421.828 420.88 412.551 404.794 407.316 414.991 423.237
424.087 423.754 422.026 413.772 414.263 422.13 422.889 421.607 420.811 412.794
412.95 420.869 421.172 421.155 420.377 412.417 412.479 420.394 421.143 421.138
420.372 412.444 412.786 420.757 421.517 421.526 420.751 413.797 413.671 421.707
422.489 422.517 421.72 413.862 413.401 421.646 422.511 421.828 420.88 412.551
404.794 407.316 414.991 423.237 424.087 423.754 422.026 413.772 414.263 422.13
422.889 421.607 420.811 412.794 412.95 420.869 421.172 421.155 420.377 412.417
412.479 420.394 421.143 421.138 420.372 412.444 412.786 420.757 421.517 421.526
420.751 413.797 413.671 421.707 422.489 422.517 421.72 413.862 413.401 421.646
422.511 421.828 420.88 412.551 404.794 407.316 414.991 423.237 424.087 423.754
422.026 413.772 414.263 422.13 422.889 421.607 420.811 412.794 412.95 420.869
421.172 421.155 420.377 412.417 412.479 420.394 421.143 421.138 420.372 412.444
412.786 420.757 421.517 421.526 420.751 413.797 413.671 421.707 422.489 422.517
421.72 413.862 413.401 421.646 422.511 421.828 420.88 412.551 404.794 385.154
386.629 391.053 397.887 400.65 397.23 393.639 393.384 396.309 400.543 400.905