/*--------------------------------*- C++ -*----------------------------------*\
| =========                 |                                                 |
| \\      /  F ield         | OpenFOAM: The Open Source CFD Toolbox           |
|  \\    /   O peration     | Version:  4.0                                   |
|   \\  /    A nd           | Web:      www.OpenFOAM.org                      |
|    \\/     M anipulation  |                                                 |
\*---------------------------------------------------------------------------*/
FoamFile
{
    version     2.0;
    format      ascii;
    class       volScalarField;
    location    "120/air";
    object      diffH2Oair;
}
// * * * * * * * * * * * * * * * * * * * * * * * * * * * * * * * * * * * * * //

dimensions      [0 2 -1 0 0 0 0];

internalField   nonuniform List<scalar> 
39776
(
3.486596e-05
3.486074e-05
3.485698e-05
3.485418e-05
3.485204e-05
3.485037e-05
3.484905e-05
3.484799e-05
3.484713e-05
3.484644e-05
3.484588e-05
3.484542e-05
3.484504e-05
3.484474e-05
3.484449e-05
3.484429e-05
3.484413e-05
3.484402e-05
3.484393e-05
3.484389e-05
3.484389e-05
3.484395e-05
3.48441e-05
3.484437e-05
3.484483e-05
3.48456e-05
3.484685e-05
3.484889e-05
3.485221e-05
3.485763e-05
3.486561e-05
3.485992e-05
3.485574e-05
3.485257e-05
3.485009e-05
3.484811e-05
3.484651e-05
3.48452e-05
3.484412e-05
3.484322e-05
3.484248e-05
3.484186e-05
3.484134e-05
3.484091e-05
3.484055e-05
3.484025e-05
3.484001e-05
3.483982e-05
3.483968e-05
3.483959e-05
3.483955e-05
3.483959e-05
3.483973e-05
3.484001e-05
3.484051e-05
3.484135e-05
3.484272e-05
3.484494e-05
3.484852e-05
3.485431e-05
3.486554e-05
3.485986e-05
3.485569e-05
3.485252e-05
3.485004e-05
3.484807e-05
3.484647e-05
3.484516e-05
3.484408e-05
3.484319e-05
3.484245e-05
3.484183e-05
3.484131e-05
3.484088e-05
3.484052e-05
3.484023e-05
3.483999e-05
3.48398e-05
3.483966e-05
3.483957e-05
3.483954e-05
3.483958e-05
3.483972e-05
3.484e-05
3.484051e-05
3.484135e-05
3.484272e-05
3.484494e-05
3.48485e-05
3.485423e-05
3.486571e-05
3.486052e-05
3.485679e-05
3.485401e-05
3.485187e-05
3.485021e-05
3.484889e-05
3.484783e-05
3.484698e-05
3.484629e-05
3.484573e-05
3.484527e-05
3.484489e-05
3.484459e-05
3.484434e-05
3.484414e-05
3.484398e-05
3.484386e-05
3.484377e-05
3.484373e-05
3.484373e-05
3.484379e-05
3.484393e-05
3.48442e-05
3.484465e-05
3.484541e-05
3.484664e-05
3.484864e-05
3.485189e-05
3.485719e-05
3.486558e-05
3.486042e-05
3.48567e-05
3.485394e-05
3.485182e-05
3.485016e-05
3.484885e-05
3.48478e-05
3.484695e-05
3.484626e-05
3.484571e-05
3.484525e-05
3.484488e-05
3.484457e-05
3.484432e-05
3.484413e-05
3.484397e-05
3.484385e-05
3.484376e-05
3.484372e-05
3.484372e-05
3.484378e-05
3.484392e-05
3.484418e-05
3.484463e-05
3.484538e-05
3.48466e-05
3.484859e-05
3.485181e-05
3.485707e-05
3.48653e-05
3.485967e-05
3.485554e-05
3.485239e-05
3.484994e-05
3.484798e-05
3.484639e-05
3.48451e-05
3.484403e-05
3.484314e-05
3.484241e-05
3.484179e-05
3.484128e-05
3.484085e-05
3.48405e-05
3.48402e-05
3.483997e-05
3.483978e-05
3.483964e-05
3.483955e-05
3.483952e-05
3.483955e-05
3.483969e-05
3.483997e-05
3.484047e-05
3.48413e-05
3.484266e-05
3.484484e-05
3.484836e-05
3.485401e-05
3.486527e-05
3.485964e-05
3.485552e-05
3.485237e-05
3.484992e-05
3.484796e-05
3.484638e-05
3.484508e-05
3.484402e-05
3.484313e-05
3.48424e-05
3.484178e-05
3.484127e-05
3.484085e-05
3.484049e-05
3.48402e-05
3.483996e-05
3.483977e-05
3.483963e-05
3.483954e-05
3.483951e-05
3.483955e-05
3.483969e-05
3.483997e-05
3.484047e-05
3.48413e-05
3.484265e-05
3.484484e-05
3.484835e-05
3.4854e-05
3.486548e-05
3.486033e-05
3.485663e-05
3.485387e-05
3.485176e-05
3.48501e-05
3.48488e-05
3.484775e-05
3.484691e-05
3.484622e-05
3.484566e-05
3.484521e-05
3.484483e-05
3.484453e-05
3.484428e-05
3.484409e-05
3.484393e-05
3.484381e-05
3.484373e-05
3.484368e-05
3.484368e-05
3.484374e-05
3.484388e-05
3.484414e-05
3.48446e-05
3.484534e-05
3.484656e-05
3.484854e-05
3.485175e-05
3.485699e-05
3.486541e-05
3.486028e-05
3.485659e-05
3.485384e-05
3.485173e-05
3.485008e-05
3.484878e-05
3.484774e-05
3.484689e-05
3.484621e-05
3.484565e-05
3.48452e-05
3.484483e-05
3.484453e-05
3.484428e-05
3.484408e-05
3.484393e-05
3.484381e-05
3.484372e-05
3.484368e-05
3.484368e-05
3.484374e-05
3.484388e-05
3.484414e-05
3.484459e-05
3.484534e-05
3.484655e-05
3.484853e-05
3.485173e-05
3.485696e-05
3.486516e-05
3.485955e-05
3.485544e-05
3.485232e-05
3.484987e-05
3.484792e-05
3.484634e-05
3.484506e-05
3.484399e-05
3.484311e-05
3.484238e-05
3.484177e-05
3.484126e-05
3.484083e-05
3.484048e-05
3.484019e-05
3.483995e-05
3.483977e-05
3.483963e-05
3.483954e-05
3.483951e-05
3.483955e-05
3.483968e-05
3.483996e-05
3.484046e-05
3.484129e-05
3.484264e-05
3.484482e-05
3.484832e-05
3.485395e-05
3.486514e-05
3.485954e-05
3.485543e-05
3.485231e-05
3.484986e-05
3.484792e-05
3.484634e-05
3.484505e-05
3.484399e-05
3.484311e-05
3.484238e-05
3.484177e-05
3.484126e-05
3.484083e-05
3.484048e-05
3.484019e-05
3.483995e-05
3.483976e-05
3.483962e-05
3.483954e-05
3.48395e-05
3.483954e-05
3.483968e-05
3.483996e-05
3.484046e-05
3.484129e-05
3.484264e-05
3.484481e-05
3.484831e-05
3.485394e-05
3.486537e-05
3.486024e-05
3.485656e-05
3.485381e-05
3.48517e-05
3.485006e-05
3.484876e-05
3.484771e-05
3.484687e-05
3.484619e-05
3.484563e-05
3.484518e-05
3.484481e-05
3.484451e-05
3.484426e-05
3.484407e-05
3.484391e-05
3.484379e-05
3.484371e-05
3.484366e-05
3.484366e-05
3.484372e-05
3.484386e-05
3.484412e-05
3.484457e-05
3.484532e-05
3.484653e-05
3.48485e-05
3.485171e-05
3.485693e-05
3.486535e-05
3.486023e-05
3.485655e-05
3.48538e-05
3.48517e-05
3.485005e-05
3.484875e-05
3.484771e-05
3.484687e-05
3.484619e-05
3.484563e-05
3.484518e-05
3.484481e-05
3.484451e-05
3.484426e-05
3.484406e-05
3.484391e-05
3.484379e-05
3.484371e-05
3.484366e-05
3.484366e-05
3.484372e-05
3.484386e-05
3.484412e-05
3.484457e-05
3.484532e-05
3.484653e-05
3.48485e-05
3.48517e-05
3.485692e-05
3.486511e-05
3.485952e-05
3.485541e-05
3.485229e-05
3.484985e-05
3.48479e-05
3.484633e-05
3.484504e-05
3.484398e-05
3.48431e-05
3.484237e-05
3.484176e-05
3.484125e-05
3.484083e-05
3.484048e-05
3.484019e-05
3.483995e-05
3.483976e-05
3.483962e-05
3.483953e-05
3.48395e-05
3.483954e-05
3.483968e-05
3.483996e-05
3.484046e-05
3.484128e-05
3.484263e-05
3.484481e-05
3.48483e-05
3.485392e-05
3.486511e-05
3.485952e-05
3.485541e-05
3.485229e-05
3.484985e-05
3.48479e-05
3.484633e-05
3.484504e-05
3.484398e-05
3.48431e-05
3.484237e-05
3.484176e-05
3.484125e-05
3.484083e-05
3.484048e-05
3.484019e-05
3.483995e-05
3.483976e-05
3.483962e-05
3.483953e-05
3.48395e-05
3.483954e-05
3.483968e-05
3.483996e-05
3.484046e-05
3.484128e-05
3.484263e-05
3.484481e-05
3.48483e-05
3.485392e-05
3.486535e-05
3.486023e-05
3.485655e-05
3.48538e-05
3.48517e-05
3.485005e-05
3.484875e-05
3.484771e-05
3.484687e-05
3.484619e-05
3.484563e-05
3.484518e-05
3.484481e-05
3.484451e-05
3.484426e-05
3.484406e-05
3.484391e-05
3.484379e-05
3.484371e-05
3.484366e-05
3.484366e-05
3.484372e-05
3.484386e-05
3.484412e-05
3.484457e-05
3.484532e-05
3.484653e-05
3.48485e-05
3.48517e-05
3.485692e-05
3.486537e-05
3.486024e-05
3.485656e-05
3.485381e-05
3.48517e-05
3.485006e-05
3.484876e-05
3.484771e-05
3.484687e-05
3.484619e-05
3.484563e-05
3.484518e-05
3.484481e-05
3.484451e-05
3.484426e-05
3.484407e-05
3.484391e-05
3.484379e-05
3.484371e-05
3.484366e-05
3.484366e-05
3.484372e-05
3.484386e-05
3.484412e-05
3.484457e-05
3.484532e-05
3.484653e-05
3.48485e-05
3.485171e-05
3.485693e-05
3.486514e-05
3.485954e-05
3.485543e-05
3.485231e-05
3.484986e-05
3.484792e-05
3.484634e-05
3.484505e-05
3.484399e-05
3.484311e-05
3.484238e-05
3.484177e-05
3.484126e-05
3.484083e-05
3.484048e-05
3.484019e-05
3.483995e-05
3.483976e-05
3.483962e-05
3.483954e-05
3.48395e-05
3.483954e-05
3.483968e-05
3.483996e-05
3.484046e-05
3.484129e-05
3.484264e-05
3.484481e-05
3.484831e-05
3.485394e-05
3.486516e-05
3.485955e-05
3.485544e-05
3.485232e-05
3.484987e-05
3.484792e-05
3.484634e-05
3.484505e-05
3.484399e-05
3.484311e-05
3.484238e-05
3.484177e-05
3.484126e-05
3.484083e-05
3.484048e-05
3.484019e-05
3.483995e-05
3.483977e-05
3.483963e-05
3.483954e-05
3.483951e-05
3.483955e-05
3.483968e-05
3.483996e-05
3.484046e-05
3.484129e-05
3.484264e-05
3.484482e-05
3.484832e-05
3.485395e-05
3.486541e-05
3.486028e-05
3.485659e-05
3.485384e-05
3.485173e-05
3.485008e-05
3.484878e-05
3.484773e-05
3.484689e-05
3.484621e-05
3.484565e-05
3.48452e-05
3.484483e-05
3.484453e-05
3.484428e-05
3.484408e-05
3.484393e-05
3.484381e-05
3.484372e-05
3.484368e-05
3.484368e-05
3.484374e-05
3.484388e-05
3.484414e-05
3.484459e-05
3.484534e-05
3.484655e-05
3.484853e-05
3.485173e-05
3.485696e-05
3.486548e-05
3.486033e-05
3.485663e-05
3.485387e-05
3.485176e-05
3.48501e-05
3.48488e-05
3.484775e-05
3.48469e-05
3.484622e-05
3.484566e-05
3.484521e-05
3.484483e-05
3.484453e-05
3.484428e-05
3.484409e-05
3.484393e-05
3.484381e-05
3.484373e-05
3.484368e-05
3.484368e-05
3.484374e-05
3.484388e-05
3.484414e-05
3.48446e-05
3.484534e-05
3.484656e-05
3.484854e-05
3.485175e-05
3.485699e-05
3.486527e-05
3.485964e-05
3.485551e-05
3.485237e-05
3.484992e-05
3.484796e-05
3.484638e-05
3.484508e-05
3.484402e-05
3.484313e-05
3.48424e-05
3.484178e-05
3.484127e-05
3.484085e-05
3.484049e-05
3.48402e-05
3.483996e-05
3.483977e-05
3.483963e-05
3.483954e-05
3.483951e-05
3.483955e-05
3.483969e-05
3.483997e-05
3.484047e-05
3.48413e-05
3.484265e-05
3.484484e-05
3.484835e-05
3.4854e-05
3.48653e-05
3.485967e-05
3.485554e-05
3.485239e-05
3.484994e-05
3.484798e-05
3.484639e-05
3.48451e-05
3.484403e-05
3.484314e-05
3.484241e-05
3.484179e-05
3.484128e-05
3.484085e-05
3.48405e-05
3.48402e-05
3.483997e-05
3.483978e-05
3.483964e-05
3.483955e-05
3.483952e-05
3.483955e-05
3.483969e-05
3.483997e-05
3.484047e-05
3.48413e-05
3.484266e-05
3.484484e-05
3.484836e-05
3.485401e-05
3.486558e-05
3.486042e-05
3.48567e-05
3.485394e-05
3.485182e-05
3.485016e-05
3.484885e-05
3.48478e-05
3.484695e-05
3.484626e-05
3.484571e-05
3.484525e-05
3.484488e-05
3.484457e-05
3.484432e-05
3.484412e-05
3.484397e-05
3.484385e-05
3.484376e-05
3.484372e-05
3.484372e-05
3.484378e-05
3.484392e-05
3.484418e-05
3.484463e-05
3.484538e-05
3.48466e-05
3.484858e-05
3.485181e-05
3.485707e-05
3.486571e-05
3.486052e-05
3.485679e-05
3.485401e-05
3.485187e-05
3.485021e-05
3.484889e-05
3.484783e-05
3.484698e-05
3.484629e-05
3.484573e-05
3.484527e-05
3.484489e-05
3.484459e-05
3.484434e-05
3.484414e-05
3.484398e-05
3.484386e-05
3.484377e-05
3.484373e-05
3.484373e-05
3.484379e-05
3.484393e-05
3.48442e-05
3.484465e-05
3.484541e-05
3.484664e-05
3.484864e-05
3.485189e-05
3.485718e-05
3.486553e-05
3.485985e-05
3.485569e-05
3.485252e-05
3.485004e-05
3.484807e-05
3.484647e-05
3.484516e-05
3.484408e-05
3.484319e-05
3.484245e-05
3.484183e-05
3.484131e-05
3.484088e-05
3.484052e-05
3.484023e-05
3.483999e-05
3.48398e-05
3.483966e-05
3.483957e-05
3.483954e-05
3.483958e-05
3.483972e-05
3.484e-05
3.484051e-05
3.484135e-05
3.484272e-05
3.484494e-05
3.48485e-05
3.485423e-05
3.486561e-05
3.485992e-05
3.485574e-05
3.485257e-05
3.485008e-05
3.484811e-05
3.48465e-05
3.48452e-05
3.484412e-05
3.484322e-05
3.484248e-05
3.484186e-05
3.484134e-05
3.484091e-05
3.484055e-05
3.484025e-05
3.484001e-05
3.483982e-05
3.483968e-05
3.483959e-05
3.483955e-05
3.483959e-05
3.483973e-05
3.484001e-05
3.484051e-05
3.484135e-05
3.484272e-05
3.484494e-05
3.484852e-05
3.48543e-05
3.486596e-05
3.486073e-05
3.485698e-05
3.485418e-05
3.485204e-05
3.485037e-05
3.484905e-05
3.484799e-05
3.484713e-05
3.484644e-05
3.484588e-05
3.484542e-05
3.484504e-05
3.484474e-05
3.484449e-05
3.484429e-05
3.484413e-05
3.484402e-05
3.484393e-05
3.484389e-05
3.484389e-05
3.484395e-05
3.48441e-05
3.484437e-05
3.484483e-05
3.48456e-05
3.484685e-05
3.484888e-05
3.48522e-05
3.485762e-05
3.4869e-05
3.486648e-05
3.486405e-05
3.48618e-05
3.485975e-05
3.485794e-05
3.485635e-05
3.485498e-05
3.485381e-05
3.485281e-05
3.485198e-05
3.485129e-05
3.485072e-05
3.485026e-05
3.484991e-05
3.484965e-05
3.484947e-05
3.484939e-05
3.48494e-05
3.484951e-05
3.484975e-05
3.485013e-05
3.485069e-05
3.485147e-05
3.485253e-05
3.485392e-05
3.485571e-05
3.485799e-05
3.486079e-05
3.486414e-05
3.486852e-05
3.486524e-05
3.48621e-05
3.485919e-05
3.485655e-05
3.48542e-05
3.485214e-05
3.485034e-05
3.484879e-05
3.484746e-05
3.484633e-05
3.484537e-05
3.484456e-05
3.484389e-05
3.484334e-05
3.484292e-05
3.48426e-05
3.484241e-05
3.484233e-05
3.484239e-05
3.484261e-05
3.484302e-05
3.484366e-05
3.48446e-05
3.484591e-05
3.484767e-05
3.484999e-05
3.485298e-05
3.485671e-05
3.486122e-05
3.486844e-05
3.486516e-05
3.486202e-05
3.485911e-05
3.485647e-05
3.485412e-05
3.485206e-05
3.485027e-05
3.484872e-05
3.484739e-05
3.484626e-05
3.48453e-05
3.484449e-05
3.484383e-05
3.484329e-05
3.484286e-05
3.484256e-05
3.484236e-05
3.484229e-05
3.484236e-05
3.484259e-05
3.484302e-05
3.484368e-05
3.484463e-05
3.484595e-05
3.484773e-05
3.485005e-05
3.485302e-05
3.485671e-05
3.486114e-05
3.486875e-05
3.486622e-05
3.48638e-05
3.486154e-05
3.48595e-05
3.485769e-05
3.48561e-05
3.485473e-05
3.485356e-05
3.485256e-05
3.485173e-05
3.485104e-05
3.485047e-05
3.485001e-05
3.484965e-05
3.484939e-05
3.484921e-05
3.484912e-05
3.484913e-05
3.484924e-05
3.484947e-05
3.484985e-05
3.48504e-05
3.485118e-05
3.485222e-05
3.48536e-05
3.485538e-05
3.485762e-05
3.486039e-05
3.486367e-05
3.486861e-05
3.48661e-05
3.486369e-05
3.486145e-05
3.485941e-05
3.485761e-05
3.485603e-05
3.485467e-05
3.48535e-05
3.485252e-05
3.485169e-05
3.4851e-05
3.485043e-05
3.484998e-05
3.484962e-05
3.484936e-05
3.484919e-05
3.48491e-05
3.484911e-05
3.484922e-05
3.484945e-05
3.484982e-05
3.485038e-05
3.485114e-05
3.485218e-05
3.485354e-05
3.485531e-05
3.485753e-05
3.486027e-05
3.486353e-05
3.48682e-05
3.486494e-05
3.486182e-05
3.485893e-05
3.485631e-05
3.485398e-05
3.485194e-05
3.485016e-05
3.484862e-05
3.48473e-05
3.484618e-05
3.484522e-05
3.484443e-05
3.484376e-05
3.484323e-05
3.484281e-05
3.48425e-05
3.484231e-05
3.484225e-05
3.484231e-05
3.484254e-05
3.484296e-05
3.484361e-05
3.484455e-05
3.484585e-05
3.484761e-05
3.48499e-05
3.485283e-05
3.485648e-05
3.486086e-05
3.486817e-05
3.486491e-05
3.486179e-05
3.48589e-05
3.485628e-05
3.485396e-05
3.485191e-05
3.485013e-05
3.48486e-05
3.484728e-05
3.484616e-05
3.484521e-05
3.484441e-05
3.484375e-05
3.484321e-05
3.48428e-05
3.484249e-05
3.48423e-05
3.484224e-05
3.48423e-05
3.484253e-05
3.484295e-05
3.48436e-05
3.484455e-05
3.484585e-05
3.48476e-05
3.48499e-05
3.485282e-05
3.485647e-05
3.486084e-05
3.48685e-05
3.486599e-05
3.486359e-05
3.486135e-05
3.485932e-05
3.485752e-05
3.485595e-05
3.485459e-05
3.485342e-05
3.485244e-05
3.485161e-05
3.485093e-05
3.485036e-05
3.484991e-05
3.484955e-05
3.484929e-05
3.484912e-05
3.484903e-05
3.484904e-05
3.484915e-05
3.484938e-05
3.484976e-05
3.485031e-05
3.485107e-05
3.485211e-05
3.485347e-05
3.485523e-05
3.485745e-05
3.486018e-05
3.486343e-05
3.486843e-05
3.486593e-05
3.486354e-05
3.48613e-05
3.485928e-05
3.485749e-05
3.485592e-05
3.485456e-05
3.48534e-05
3.485242e-05
3.48516e-05
3.485091e-05
3.485035e-05
3.48499e-05
3.484955e-05
3.484928e-05
3.484911e-05
3.484903e-05
3.484903e-05
3.484914e-05
3.484938e-05
3.484975e-05
3.48503e-05
3.485106e-05
3.48521e-05
3.485346e-05
3.485521e-05
3.485743e-05
3.486015e-05
3.486339e-05
3.486805e-05
3.48648e-05
3.48617e-05
3.485882e-05
3.485621e-05
3.485389e-05
3.485186e-05
3.485009e-05
3.484856e-05
3.484725e-05
3.484613e-05
3.484518e-05
3.484439e-05
3.484373e-05
3.48432e-05
3.484278e-05
3.484248e-05
3.484229e-05
3.484222e-05
3.484229e-05
3.484252e-05
3.484293e-05
3.484358e-05
3.484452e-05
3.484582e-05
3.484757e-05
3.484986e-05
3.485278e-05
3.485641e-05
3.486077e-05
3.486803e-05
3.486479e-05
3.486169e-05
3.485881e-05
3.48562e-05
3.485388e-05
3.485185e-05
3.485008e-05
3.484855e-05
3.484724e-05
3.484612e-05
3.484517e-05
3.484438e-05
3.484372e-05
3.484319e-05
3.484277e-05
3.484247e-05
3.484228e-05
3.484222e-05
3.484229e-05
3.484251e-05
3.484293e-05
3.484358e-05
3.484452e-05
3.484582e-05
3.484757e-05
3.484985e-05
3.485277e-05
3.48564e-05
3.486076e-05
3.486839e-05
3.486589e-05
3.486349e-05
3.486126e-05
3.485924e-05
3.485745e-05
3.485588e-05
3.485453e-05
3.485337e-05
3.485239e-05
3.485157e-05
3.485088e-05
3.485032e-05
3.484987e-05
3.484952e-05
3.484925e-05
3.484908e-05
3.4849e-05
3.4849e-05
3.484912e-05
3.484935e-05
3.484972e-05
3.485027e-05
3.485103e-05
3.485206e-05
3.485342e-05
3.485518e-05
3.485739e-05
3.486011e-05
3.486335e-05
3.486836e-05
3.486587e-05
3.486348e-05
3.486125e-05
3.485923e-05
3.485744e-05
3.485587e-05
3.485452e-05
3.485336e-05
3.485238e-05
3.485156e-05
3.485088e-05
3.485032e-05
3.484987e-05
3.484951e-05
3.484925e-05
3.484908e-05
3.484899e-05
3.4849e-05
3.484911e-05
3.484934e-05
3.484972e-05
3.485027e-05
3.485103e-05
3.485206e-05
3.485342e-05
3.485517e-05
3.485738e-05
3.486011e-05
3.486334e-05
3.486799e-05
3.486476e-05
3.486166e-05
3.485878e-05
3.485618e-05
3.485387e-05
3.485183e-05
3.485006e-05
3.484854e-05
3.484723e-05
3.484611e-05
3.484517e-05
3.484437e-05
3.484372e-05
3.484319e-05
3.484277e-05
3.484247e-05
3.484228e-05
3.484221e-05
3.484228e-05
3.484251e-05
3.484293e-05
3.484357e-05
3.484451e-05
3.484581e-05
3.484756e-05
3.484984e-05
3.485276e-05
3.485638e-05
3.486074e-05
3.486799e-05
3.486476e-05
3.486166e-05
3.485878e-05
3.485618e-05
3.485387e-05
3.485183e-05
3.485006e-05
3.484854e-05
3.484723e-05
3.484611e-05
3.484517e-05
3.484437e-05
3.484372e-05
3.484319e-05
3.484277e-05
3.484247e-05
3.484228e-05
3.484221e-05
3.484228e-05
3.484251e-05
3.484293e-05
3.484357e-05
3.484451e-05
3.484581e-05
3.484756e-05
3.484984e-05
3.485276e-05
3.485638e-05
3.486074e-05
3.486836e-05
3.486587e-05
3.486348e-05
3.486125e-05
3.485923e-05
3.485744e-05
3.485587e-05
3.485452e-05
3.485336e-05
3.485238e-05
3.485156e-05
3.485088e-05
3.485032e-05
3.484987e-05
3.484951e-05
3.484925e-05
3.484908e-05
3.484899e-05
3.4849e-05
3.484911e-05
3.484934e-05
3.484972e-05
3.485027e-05
3.485103e-05
3.485206e-05
3.485342e-05
3.485517e-05
3.485738e-05
3.486011e-05
3.486334e-05
3.486838e-05
3.486589e-05
3.486349e-05
3.486126e-05
3.485924e-05
3.485745e-05
3.485588e-05
3.485453e-05
3.485337e-05
3.485239e-05
3.485157e-05
3.485088e-05
3.485032e-05
3.484987e-05
3.484952e-05
3.484925e-05
3.484908e-05
3.4849e-05
3.4849e-05
3.484912e-05
3.484935e-05
3.484972e-05
3.485027e-05
3.485103e-05
3.485206e-05
3.485342e-05
3.485518e-05
3.485739e-05
3.486011e-05
3.486335e-05
3.486803e-05
3.486479e-05
3.486168e-05
3.485881e-05
3.48562e-05
3.485388e-05
3.485185e-05
3.485008e-05
3.484855e-05
3.484724e-05
3.484612e-05
3.484517e-05
3.484438e-05
3.484372e-05
3.484319e-05
3.484277e-05
3.484247e-05
3.484228e-05
3.484222e-05
3.484229e-05
3.484251e-05
3.484293e-05
3.484358e-05
3.484452e-05
3.484582e-05
3.484756e-05
3.484985e-05
3.485277e-05
3.48564e-05
3.486076e-05
3.486805e-05
3.48648e-05
3.48617e-05
3.485882e-05
3.485621e-05
3.485389e-05
3.485186e-05
3.485009e-05
3.484856e-05
3.484725e-05
3.484613e-05
3.484518e-05
3.484439e-05
3.484373e-05
3.48432e-05
3.484278e-05
3.484248e-05
3.484229e-05
3.484222e-05
3.484229e-05
3.484252e-05
3.484293e-05
3.484358e-05
3.484452e-05
3.484582e-05
3.484757e-05
3.484985e-05
3.485278e-05
3.485641e-05
3.486077e-05
3.486843e-05
3.486593e-05
3.486353e-05
3.48613e-05
3.485928e-05
3.485749e-05
3.485592e-05
3.485456e-05
3.48534e-05
3.485242e-05
3.48516e-05
3.485091e-05
3.485035e-05
3.48499e-05
3.484955e-05
3.484928e-05
3.484911e-05
3.484903e-05
3.484903e-05
3.484914e-05
3.484938e-05
3.484975e-05
3.48503e-05
3.485106e-05
3.485209e-05
3.485346e-05
3.485521e-05
3.485743e-05
3.486015e-05
3.486339e-05
3.48685e-05
3.486599e-05
3.486359e-05
3.486135e-05
3.485932e-05
3.485752e-05
3.485595e-05
3.485459e-05
3.485342e-05
3.485244e-05
3.485161e-05
3.485093e-05
3.485036e-05
3.484991e-05
3.484955e-05
3.484929e-05
3.484912e-05
3.484903e-05
3.484904e-05
3.484915e-05
3.484938e-05
3.484976e-05
3.485031e-05
3.485107e-05
3.485211e-05
3.485347e-05
3.485523e-05
3.485745e-05
3.486018e-05
3.486343e-05
3.486816e-05
3.486491e-05
3.486179e-05
3.48589e-05
3.485628e-05
3.485396e-05
3.485191e-05
3.485013e-05
3.48486e-05
3.484728e-05
3.484616e-05
3.484521e-05
3.484441e-05
3.484375e-05
3.484321e-05
3.48428e-05
3.484249e-05
3.48423e-05
3.484224e-05
3.48423e-05
3.484253e-05
3.484295e-05
3.48436e-05
3.484455e-05
3.484585e-05
3.48476e-05
3.48499e-05
3.485282e-05
3.485647e-05
3.486084e-05
3.48682e-05
3.486494e-05
3.486182e-05
3.485893e-05
3.485631e-05
3.485398e-05
3.485194e-05
3.485016e-05
3.484862e-05
3.48473e-05
3.484618e-05
3.484522e-05
3.484443e-05
3.484376e-05
3.484323e-05
3.484281e-05
3.48425e-05
3.484231e-05
3.484225e-05
3.484231e-05
3.484254e-05
3.484296e-05
3.484361e-05
3.484455e-05
3.484585e-05
3.484761e-05
3.48499e-05
3.485283e-05
3.485648e-05
3.486086e-05
3.486861e-05
3.48661e-05
3.486369e-05
3.486144e-05
3.485941e-05
3.485761e-05
3.485603e-05
3.485467e-05
3.48535e-05
3.485252e-05
3.485169e-05
3.4851e-05
3.485043e-05
3.484998e-05
3.484962e-05
3.484936e-05
3.484918e-05
3.48491e-05
3.484911e-05
3.484922e-05
3.484945e-05
3.484982e-05
3.485037e-05
3.485114e-05
3.485218e-05
3.485354e-05
3.485531e-05
3.485753e-05
3.486027e-05
3.486353e-05
3.486875e-05
3.486622e-05
3.48638e-05
3.486154e-05
3.48595e-05
3.485769e-05
3.48561e-05
3.485473e-05
3.485356e-05
3.485256e-05
3.485173e-05
3.485104e-05
3.485047e-05
3.485001e-05
3.484965e-05
3.484938e-05
3.484921e-05
3.484912e-05
3.484913e-05
3.484924e-05
3.484947e-05
3.484985e-05
3.48504e-05
3.485118e-05
3.485222e-05
3.48536e-05
3.485537e-05
3.485762e-05
3.486038e-05
3.486367e-05
3.486844e-05
3.486516e-05
3.486202e-05
3.485911e-05
3.485647e-05
3.485412e-05
3.485206e-05
3.485027e-05
3.484872e-05
3.484739e-05
3.484626e-05
3.48453e-05
3.484449e-05
3.484383e-05
3.484329e-05
3.484286e-05
3.484255e-05
3.484236e-05
3.484229e-05
3.484236e-05
3.484259e-05
3.484301e-05
3.484367e-05
3.484463e-05
3.484595e-05
3.484772e-05
3.485005e-05
3.485301e-05
3.485671e-05
3.486114e-05
3.486852e-05
3.486524e-05
3.48621e-05
3.485919e-05
3.485655e-05
3.48542e-05
3.485214e-05
3.485034e-05
3.484879e-05
3.484746e-05
3.484633e-05
3.484537e-05
3.484456e-05
3.484389e-05
3.484334e-05
3.484292e-05
3.48426e-05
3.48424e-05
3.484233e-05
3.484239e-05
3.484261e-05
3.484301e-05
3.484366e-05
3.48446e-05
3.48459e-05
3.484767e-05
3.484999e-05
3.485297e-05
3.48567e-05
3.486122e-05
3.4869e-05
3.486648e-05
3.486405e-05
3.48618e-05
3.485975e-05
3.485794e-05
3.485635e-05
3.485498e-05
3.485381e-05
3.485281e-05
3.485198e-05
3.485129e-05
3.485072e-05
3.485026e-05
3.484991e-05
3.484964e-05
3.484947e-05
3.484939e-05
3.48494e-05
3.484951e-05
3.484975e-05
3.485013e-05
3.485069e-05
3.485147e-05
3.485252e-05
3.485391e-05
3.485571e-05
3.485799e-05
3.486079e-05
3.486413e-05
3.486995e-05
3.486836e-05
3.486677e-05
3.486521e-05
3.486369e-05
3.486225e-05
3.48609e-05
3.485966e-05
3.485855e-05
3.485756e-05
3.48567e-05
3.485596e-05
3.485534e-05
3.485484e-05
3.485446e-05
3.485418e-05
3.485402e-05
3.485398e-05
3.485407e-05
3.485428e-05
3.485465e-05
3.485518e-05
3.485589e-05
3.485681e-05
3.485795e-05
3.485934e-05
3.486098e-05
3.486288e-05
3.486503e-05
3.486741e-05
3.486944e-05
3.486701e-05
3.486461e-05
3.486227e-05
3.486002e-05
3.485791e-05
3.485595e-05
3.485416e-05
3.485254e-05
3.48511e-05
3.484984e-05
3.484874e-05
3.48478e-05
3.484702e-05
3.484639e-05
3.484591e-05
3.484558e-05
3.484541e-05
3.484541e-05
3.48456e-05
3.4846e-05
3.484665e-05
3.484757e-05
3.484881e-05
3.485042e-05
3.485245e-05
3.485491e-05
3.485785e-05
3.486127e-05
3.486513e-05
3.486937e-05
3.486694e-05
3.486453e-05
3.486218e-05
3.485993e-05
3.485782e-05
3.485585e-05
3.485406e-05
3.485244e-05
3.4851e-05
3.484974e-05
3.484864e-05
3.484771e-05
3.484693e-05
3.484631e-05
3.484583e-05
3.484551e-05
3.484535e-05
3.484536e-05
3.484556e-05
3.484598e-05
3.484664e-05
3.484758e-05
3.484884e-05
3.485047e-05
3.48525e-05
3.485496e-05
3.485788e-05
3.486125e-05
3.486505e-05
3.486973e-05
3.486812e-05
3.486652e-05
3.486495e-05
3.486342e-05
3.486198e-05
3.486062e-05
3.485939e-05
3.485827e-05
3.485728e-05
3.485641e-05
3.485567e-05
3.485505e-05
3.485454e-05
3.485415e-05
3.485387e-05
3.485371e-05
3.485366e-05
3.485374e-05
3.485395e-05
3.485431e-05
3.485483e-05
3.485554e-05
3.485645e-05
3.485759e-05
3.485896e-05
3.48606e-05
3.486249e-05
3.486463e-05
3.4867e-05
3.48696e-05
3.4868e-05
3.486641e-05
3.486484e-05
3.486333e-05
3.486188e-05
3.486054e-05
3.485931e-05
3.485819e-05
3.485721e-05
3.485635e-05
3.485561e-05
3.485499e-05
3.485449e-05
3.48541e-05
3.485383e-05
3.485367e-05
3.485362e-05
3.48537e-05
3.485391e-05
3.485427e-05
3.485479e-05
3.485549e-05
3.485639e-05
3.485752e-05
3.485888e-05
3.48605e-05
3.486238e-05
3.48645e-05
3.486685e-05
3.486915e-05
3.486673e-05
3.486433e-05
3.4862e-05
3.485976e-05
3.485766e-05
3.48557e-05
3.485392e-05
3.485232e-05
3.485089e-05
3.484963e-05
3.484854e-05
3.484761e-05
3.484684e-05
3.484622e-05
3.484575e-05
3.484543e-05
3.484527e-05
3.484528e-05
3.484548e-05
3.484589e-05
3.484654e-05
3.484746e-05
3.484871e-05
3.485031e-05
3.485232e-05
3.485476e-05
3.485765e-05
3.486099e-05
3.486476e-05
3.486911e-05
3.486669e-05
3.48643e-05
3.486196e-05
3.485973e-05
3.485762e-05
3.485567e-05
3.485389e-05
3.485229e-05
3.485086e-05
3.48496e-05
3.484852e-05
3.484759e-05
3.484682e-05
3.48462e-05
3.484573e-05
3.484541e-05
3.484525e-05
3.484526e-05
3.484546e-05
3.484587e-05
3.484653e-05
3.484746e-05
3.48487e-05
3.485031e-05
3.485231e-05
3.485475e-05
3.485764e-05
3.486097e-05
3.486473e-05
3.486949e-05
3.48679e-05
3.48663e-05
3.486474e-05
3.486322e-05
3.486178e-05
3.486044e-05
3.485921e-05
3.48581e-05
3.485711e-05
3.485625e-05
3.485552e-05
3.48549e-05
3.48544e-05
3.485401e-05
3.485374e-05
3.485358e-05
3.485353e-05
3.485361e-05
3.485382e-05
3.485418e-05
3.48547e-05
3.48554e-05
3.48563e-05
3.485743e-05
3.485879e-05
3.48604e-05
3.486228e-05
3.48644e-05
3.486674e-05
3.486942e-05
3.486784e-05
3.486625e-05
3.486469e-05
3.486318e-05
3.486174e-05
3.48604e-05
3.485918e-05
3.485807e-05
3.485709e-05
3.485623e-05
3.48555e-05
3.485488e-05
3.485438e-05
3.4854e-05
3.485373e-05
3.485357e-05
3.485352e-05
3.48536e-05
3.485381e-05
3.485417e-05
3.485469e-05
3.485538e-05
3.485628e-05
3.48574e-05
3.485876e-05
3.486038e-05
3.486224e-05
3.486436e-05
3.486669e-05
3.4869e-05
3.486658e-05
3.48642e-05
3.486187e-05
3.485965e-05
3.485755e-05
3.485561e-05
3.485383e-05
3.485223e-05
3.485081e-05
3.484956e-05
3.484848e-05
3.484756e-05
3.484679e-05
3.484617e-05
3.48457e-05
3.484539e-05
3.484523e-05
3.484524e-05
3.484544e-05
3.484585e-05
3.48465e-05
3.484742e-05
3.484867e-05
3.485027e-05
3.485226e-05
3.485469e-05
3.485757e-05
3.48609e-05
3.486465e-05
3.486898e-05
3.486657e-05
3.486418e-05
3.486186e-05
3.485963e-05
3.485754e-05
3.485559e-05
3.485382e-05
3.485222e-05
3.48508e-05
3.484955e-05
3.484847e-05
3.484755e-05
3.484678e-05
3.484616e-05
3.484569e-05
3.484538e-05
3.484522e-05
3.484523e-05
3.484543e-05
3.484584e-05
3.484649e-05
3.484742e-05
3.484866e-05
3.485026e-05
3.485226e-05
3.485468e-05
3.485756e-05
3.486089e-05
3.486463e-05
3.486938e-05
3.486779e-05
3.48662e-05
3.486464e-05
3.486313e-05
3.48617e-05
3.486036e-05
3.485913e-05
3.485803e-05
3.485705e-05
3.485619e-05
3.485546e-05
3.485484e-05
3.485435e-05
3.485396e-05
3.485369e-05
3.485353e-05
3.485348e-05
3.485356e-05
3.485377e-05
3.485413e-05
3.485465e-05
3.485535e-05
3.485624e-05
3.485736e-05
3.485872e-05
3.486033e-05
3.48622e-05
3.486431e-05
3.486665e-05
3.486936e-05
3.486777e-05
3.486619e-05
3.486463e-05
3.486312e-05
3.486169e-05
3.486035e-05
3.485912e-05
3.485802e-05
3.485704e-05
3.485618e-05
3.485545e-05
3.485484e-05
3.485434e-05
3.485396e-05
3.485368e-05
3.485352e-05
3.485348e-05
3.485356e-05
3.485377e-05
3.485413e-05
3.485464e-05
3.485534e-05
3.485624e-05
3.485736e-05
3.485872e-05
3.486033e-05
3.486219e-05
3.48643e-05
3.486664e-05
3.486894e-05
3.486654e-05
3.486415e-05
3.486183e-05
3.485961e-05
3.485752e-05
3.485557e-05
3.48538e-05
3.485221e-05
3.485079e-05
3.484954e-05
3.484846e-05
3.484754e-05
3.484677e-05
3.484615e-05
3.484569e-05
3.484537e-05
3.484521e-05
3.484522e-05
3.484542e-05
3.484583e-05
3.484648e-05
3.484741e-05
3.484865e-05
3.485025e-05
3.485224e-05
3.485467e-05
3.485754e-05
3.486087e-05
3.486461e-05
3.486894e-05
3.486654e-05
3.486415e-05
3.486183e-05
3.485961e-05
3.485752e-05
3.485557e-05
3.48538e-05
3.485221e-05
3.485079e-05
3.484954e-05
3.484846e-05
3.484754e-05
3.484677e-05
3.484615e-05
3.484569e-05
3.484537e-05
3.484521e-05
3.484522e-05
3.484542e-05
3.484583e-05
3.484648e-05
3.484741e-05
3.484865e-05
3.485025e-05
3.485224e-05
3.485467e-05
3.485754e-05
3.486087e-05
3.486461e-05
3.486936e-05
3.486777e-05
3.486619e-05
3.486463e-05
3.486312e-05
3.486169e-05
3.486035e-05
3.485912e-05
3.485802e-05
3.485704e-05
3.485618e-05
3.485545e-05
3.485484e-05
3.485434e-05
3.485396e-05
3.485368e-05
3.485352e-05
3.485348e-05
3.485356e-05
3.485377e-05
3.485413e-05
3.485464e-05
3.485534e-05
3.485624e-05
3.485736e-05
3.485872e-05
3.486033e-05
3.486219e-05
3.48643e-05
3.486664e-05
3.486938e-05
3.486779e-05
3.48662e-05
3.486464e-05
3.486313e-05
3.48617e-05
3.486036e-05
3.485913e-05
3.485803e-05
3.485705e-05
3.485619e-05
3.485546e-05
3.485484e-05
3.485435e-05
3.485396e-05
3.485369e-05
3.485353e-05
3.485348e-05
3.485356e-05
3.485377e-05
3.485413e-05
3.485465e-05
3.485535e-05
3.485624e-05
3.485736e-05
3.485872e-05
3.486033e-05
3.48622e-05
3.486431e-05
3.486665e-05
3.486898e-05
3.486657e-05
3.486418e-05
3.486186e-05
3.485963e-05
3.485754e-05
3.485559e-05
3.485382e-05
3.485222e-05
3.48508e-05
3.484955e-05
3.484847e-05
3.484755e-05
3.484678e-05
3.484616e-05
3.484569e-05
3.484538e-05
3.484522e-05
3.484523e-05
3.484543e-05
3.484584e-05
3.484649e-05
3.484742e-05
3.484866e-05
3.485026e-05
3.485226e-05
3.485468e-05
3.485756e-05
3.486089e-05
3.486463e-05
3.4869e-05
3.486658e-05
3.48642e-05
3.486187e-05
3.485965e-05
3.485755e-05
3.485561e-05
3.485383e-05
3.485223e-05
3.485081e-05
3.484956e-05
3.484848e-05
3.484756e-05
3.484679e-05
3.484617e-05
3.48457e-05
3.484539e-05
3.484523e-05
3.484524e-05
3.484544e-05
3.484585e-05
3.48465e-05
3.484742e-05
3.484867e-05
3.485027e-05
3.485226e-05
3.485469e-05
3.485757e-05
3.48609e-05
3.486464e-05
3.486942e-05
3.486784e-05
3.486625e-05
3.486469e-05
3.486318e-05
3.486174e-05
3.48604e-05
3.485918e-05
3.485807e-05