/*--------------------------------*- C++ -*----------------------------------*\
| =========                 |                                                 |
| \\      /  F ield         | OpenFOAM: The Open Source CFD Toolbox           |
|  \\    /   O peration     | Version:  4.0                                   |
|   \\  /    A nd           | Web:      www.OpenFOAM.org                      |
|    \\/     M anipulation  |                                                 |
\*---------------------------------------------------------------------------*/
FoamFile
{
    version     2.0;
    format      ascii;
    class       volScalarField;
    location    "120/air";
    object      diffH2Oair;
}
// * * * * * * * * * * * * * * * * * * * * * * * * * * * * * * * * * * * * * //

dimensions      [0 2 -1 0 0 0 0];

internalField   nonuniform List<scalar> 
39776
(
3.479133e-05
3.479143e-05
3.479173e-05
3.479206e-05
3.479242e-05
3.479282e-05
3.479324e-05
3.479366e-05
3.479409e-05
3.479452e-05
3.479496e-05
3.47954e-05
3.479585e-05
3.479631e-05
3.479677e-05
3.479724e-05
3.479772e-05
3.479821e-05
3.479871e-05
3.479922e-05
3.479974e-05
3.480027e-05
3.480081e-05
3.480137e-05
3.480194e-05
3.480253e-05
3.480314e-05
3.480378e-05
3.480449e-05
3.480523e-05
3.479146e-05
3.479157e-05
3.479186e-05
3.479218e-05
3.479254e-05
3.479293e-05
3.479333e-05
3.479374e-05
3.479415e-05
3.479457e-05
3.479499e-05
3.479542e-05
3.479585e-05
3.479629e-05
3.479673e-05
3.479718e-05
3.479763e-05
3.479809e-05
3.479856e-05
3.479904e-05
3.479952e-05
3.480001e-05
3.480051e-05
3.480102e-05
3.480154e-05
3.480206e-05
3.48026e-05
3.480316e-05
3.480378e-05
3.480446e-05
3.479138e-05
3.479149e-05
3.479178e-05
3.47921e-05
3.479245e-05
3.479283e-05
3.479322e-05
3.479362e-05
3.479402e-05
3.479442e-05
3.479483e-05
3.479523e-05
3.479564e-05
3.479606e-05
3.479647e-05
3.479689e-05
3.479732e-05
3.479774e-05
3.479817e-05
3.479861e-05
3.479904e-05
3.479948e-05
3.479992e-05
3.480037e-05
3.480081e-05
3.480126e-05
3.480171e-05
3.480217e-05
3.480266e-05
3.480331e-05
3.479117e-05
3.479129e-05
3.479159e-05
3.479192e-05
3.479228e-05
3.479267e-05
3.479308e-05
3.479349e-05
3.479391e-05
3.479433e-05
3.479475e-05
3.479519e-05
3.479563e-05
3.479607e-05
3.479653e-05
3.479699e-05
3.479746e-05
3.479795e-05
3.479844e-05
3.479894e-05
3.479946e-05
3.479999e-05
3.480054e-05
3.48011e-05
3.480168e-05
3.480228e-05
3.480291e-05
3.480356e-05
3.480427e-05
3.480517e-05
3.479107e-05
3.47912e-05
3.479151e-05
3.479185e-05
3.479223e-05
3.479264e-05
3.479307e-05
3.47935e-05
3.479394e-05
3.479439e-05
3.479485e-05
3.479531e-05
3.479578e-05
3.479627e-05
3.479676e-05
3.479726e-05
3.479777e-05
3.47983e-05
3.479883e-05
3.479938e-05
3.479995e-05
3.480053e-05
3.480113e-05
3.480174e-05
3.480237e-05
3.480302e-05
3.480369e-05
3.480439e-05
3.480515e-05
3.480609e-05
3.479126e-05
3.479139e-05
3.479169e-05
3.479203e-05
3.47924e-05
3.47928e-05
3.479322e-05
3.479364e-05
3.479407e-05
3.479451e-05
3.479495e-05
3.479541e-05
3.479586e-05
3.479633e-05
3.47968e-05
3.479729e-05
3.479778e-05
3.479828e-05
3.479879e-05
3.479932e-05
3.479985e-05
3.48004e-05
3.480095e-05
3.480152e-05
3.48021e-05
3.48027e-05
3.480331e-05
3.480394e-05
3.480461e-05
3.480544e-05
3.479124e-05
3.479136e-05
3.479167e-05
3.479201e-05
3.479238e-05
3.479278e-05
3.479319e-05
3.479361e-05
3.479403e-05
3.479446e-05
3.47949e-05
3.479534e-05
3.479579e-05
3.479624e-05
3.479671e-05
3.479718e-05
3.479765e-05
3.479814e-05
3.479863e-05
3.479913e-05
3.479964e-05
3.480015e-05
3.480068e-05
3.480121e-05
3.480175e-05
3.48023e-05
3.480285e-05
3.480343e-05
3.480403e-05
3.480478e-05
3.479106e-05
3.479119e-05
3.47915e-05
3.479185e-05
3.479223e-05
3.479264e-05
3.479306e-05
3.47935e-05
3.479394e-05
3.479439e-05
3.479485e-05
3.479532e-05
3.479579e-05
3.479628e-05
3.479678e-05
3.479729e-05
3.479781e-05
3.479834e-05
3.479889e-05
3.479945e-05
3.480003e-05
3.480063e-05
3.480124e-05
3.480188e-05
3.480254e-05
3.480322e-05
3.480392e-05
3.480466e-05
3.480546e-05
3.480644e-05
3.479094e-05
3.479108e-05
3.479139e-05
3.479175e-05
3.479213e-05
3.479255e-05
3.479298e-05
3.479342e-05
3.479387e-05
3.479433e-05
3.479479e-05
3.479527e-05
3.479575e-05
3.479624e-05
3.479675e-05
3.479727e-05
3.479779e-05
3.479834e-05
3.479889e-05
3.479946e-05
3.480005e-05
3.480066e-05
3.480128e-05
3.480192e-05
3.480259e-05
3.480327e-05
3.480398e-05
3.480472e-05
3.480552e-05
3.480649e-05
3.479114e-05
3.479127e-05
3.479158e-05
3.479193e-05
3.479231e-05
3.479272e-05
3.479314e-05
3.479356e-05
3.4794e-05
3.479444e-05
3.479489e-05
3.479534e-05
3.479581e-05
3.479628e-05
3.479676e-05
3.479725e-05
3.479775e-05
3.479826e-05
3.479878e-05
3.479932e-05
3.479986e-05
3.480041e-05
3.480098e-05
3.480156e-05
3.480215e-05
3.480275e-05
3.480337e-05
3.480401e-05
3.480468e-05
3.48055e-05
3.479112e-05
3.479126e-05
3.479157e-05
3.479192e-05
3.47923e-05
3.47927e-05
3.479312e-05
3.479355e-05
3.479398e-05
3.479442e-05
3.479487e-05
3.479532e-05
3.479578e-05
3.479625e-05
3.479673e-05
3.479721e-05
3.479771e-05
3.479821e-05
3.479872e-05
3.479925e-05
3.479978e-05
3.480032e-05
3.480088e-05
3.480144e-05
3.480202e-05
3.480261e-05
3.480321e-05
3.480382e-05
3.480447e-05
3.480527e-05
3.479094e-05
3.479107e-05
3.479139e-05
3.479174e-05
3.479212e-05
3.479253e-05
3.479297e-05
3.479341e-05
3.479386e-05
3.479432e-05
3.479478e-05
3.479526e-05
3.479574e-05
3.479624e-05
3.479675e-05
3.479726e-05
3.479779e-05
3.479834e-05
3.47989e-05
3.479947e-05
3.480007e-05
3.480068e-05
3.48013e-05
3.480195e-05
3.480262e-05
3.480332e-05
3.480404e-05
3.480479e-05
3.480559e-05
3.480658e-05
3.479091e-05
3.479104e-05
3.479136e-05
3.479171e-05
3.479209e-05
3.479251e-05
3.479294e-05
3.479338e-05
3.479383e-05
3.479429e-05
3.479476e-05
3.479523e-05
3.479572e-05
3.479622e-05
3.479673e-05
3.479725e-05
3.479778e-05
3.479833e-05
3.479889e-05
3.479947e-05
3.480006e-05
3.480067e-05
3.480131e-05
3.480196e-05
3.480263e-05
3.480333e-05
3.480405e-05
3.48048e-05
3.480561e-05
3.48066e-05
3.47911e-05
3.479124e-05
3.479155e-05
3.47919e-05
3.479227e-05
3.479267e-05
3.479309e-05
3.479352e-05
3.479395e-05
3.479439e-05
3.479484e-05
3.47953e-05
3.479576e-05
3.479624e-05
3.479672e-05
3.479721e-05
3.479771e-05
3.479822e-05
3.479874e-05
3.479927e-05
3.479981e-05
3.480037e-05
3.480093e-05
3.480151e-05
3.48021e-05
3.48027e-05
3.480331e-05
3.480394e-05
3.480461e-05
3.480542e-05
3.47911e-05
3.479124e-05
3.479155e-05
3.479189e-05
3.479227e-05
3.479267e-05
3.479309e-05
3.479352e-05
3.479395e-05
3.479439e-05
3.479484e-05
3.47953e-05
3.479577e-05
3.479624e-05
3.479672e-05
3.479721e-05
3.479771e-05
3.479822e-05
3.479874e-05
3.479927e-05
3.479981e-05
3.480037e-05
3.480093e-05
3.480151e-05
3.48021e-05
3.48027e-05
3.480331e-05
3.480394e-05
3.480461e-05
3.480542e-05
3.47909e-05
3.479104e-05
3.479136e-05
3.479171e-05
3.479209e-05
3.47925e-05
3.479294e-05
3.479338e-05
3.479383e-05
3.479429e-05
3.479476e-05
3.479523e-05
3.479572e-05
3.479622e-05
3.479672e-05
3.479724e-05
3.479778e-05
3.479833e-05
3.479889e-05
3.479946e-05
3.480006e-05
3.480067e-05
3.48013e-05
3.480195e-05
3.480263e-05
3.480332e-05
3.480404e-05
3.48048e-05
3.480561e-05
3.480659e-05
3.479094e-05
3.479108e-05
3.479139e-05
3.479175e-05
3.479214e-05
3.479255e-05
3.479299e-05
3.479343e-05
3.479388e-05
3.479434e-05
3.47948e-05
3.479527e-05
3.479576e-05
3.479625e-05
3.479676e-05
3.479728e-05
3.479781e-05
3.479835e-05
3.479891e-05
3.479948e-05
3.480007e-05
3.480068e-05
3.480131e-05
3.480196e-05
3.480263e-05
3.480332e-05
3.480404e-05
3.480479e-05
3.48056e-05
3.480659e-05
3.479113e-05
3.479127e-05
3.479158e-05
3.479192e-05
3.47923e-05
3.47927e-05
3.479312e-05
3.479355e-05
3.479399e-05
3.479443e-05
3.479487e-05
3.479533e-05
3.479579e-05
3.479625e-05
3.479673e-05
3.479721e-05
3.479771e-05
3.479821e-05
3.479873e-05
3.479925e-05
3.479978e-05
3.480033e-05
3.480088e-05
3.480145e-05
3.480202e-05
3.480261e-05
3.480321e-05
3.480382e-05
3.480447e-05
3.480527e-05
3.479115e-05
3.479129e-05
3.47916e-05
3.479194e-05
3.479232e-05
3.479272e-05
3.479314e-05
3.479357e-05
3.4794e-05
3.479444e-05
3.479489e-05
3.479535e-05
3.479581e-05
3.479628e-05
3.479677e-05
3.479726e-05
3.479776e-05
3.479827e-05
3.479879e-05
3.479932e-05
3.479986e-05
3.480041e-05
3.480098e-05
3.480156e-05
3.480215e-05
3.480275e-05
3.480337e-05
3.480401e-05
3.480468e-05
3.48055e-05
3.479096e-05
3.479109e-05
3.47914e-05
3.479176e-05
3.479214e-05
3.479255e-05
3.479298e-05
3.479343e-05
3.479387e-05
3.479433e-05
3.47948e-05
3.479527e-05
3.479576e-05
3.479625e-05
3.479675e-05
3.479727e-05
3.47978e-05
3.479834e-05
3.47989e-05
3.479947e-05
3.480005e-05
3.480066e-05
3.480128e-05
3.480192e-05
3.480259e-05
3.480327e-05
3.480398e-05
3.480472e-05
3.480552e-05
3.480649e-05
3.479108e-05
3.479121e-05
3.479152e-05
3.479187e-05
3.479225e-05
3.479266e-05
3.479308e-05
3.479352e-05
3.479396e-05
3.479441e-05
3.479487e-05
3.479534e-05
3.479582e-05
3.47963e-05
3.47968e-05
3.479731e-05
3.479783e-05
3.479836e-05
3.479891e-05
3.479948e-05
3.480006e-05
3.480065e-05
3.480127e-05
3.48019e-05
3.480256e-05
3.480324e-05
3.480395e-05
3.480469e-05
3.480549e-05
3.480646e-05
3.479126e-05
3.479139e-05
3.479169e-05
3.479203e-05
3.47924e-05
3.47928e-05
3.479322e-05
3.479363e-05
3.479406e-05
3.479449e-05
3.479493e-05
3.479537e-05
3.479582e-05
3.479627e-05
3.479673e-05
3.47972e-05
3.479768e-05
3.479816e-05
3.479865e-05
3.479915e-05
3.479966e-05
3.480018e-05
3.48007e-05
3.480123e-05
3.480177e-05
3.480232e-05
3.480288e-05
3.480345e-05
3.480406e-05
3.480481e-05
3.479129e-05
3.479141e-05
3.479172e-05
3.479206e-05
3.479243e-05
3.479283e-05
3.479324e-05
3.479367e-05
3.47941e-05
3.479453e-05
3.479498e-05
3.479543e-05
3.479589e-05
3.479635e-05
3.479683e-05
3.479731e-05
3.479781e-05
3.479831e-05
3.479882e-05
3.479934e-05
3.479988e-05
3.480042e-05
3.480098e-05
3.480155e-05
3.480213e-05
3.480273e-05
3.480334e-05
3.480397e-05
3.480464e-05
3.480547e-05
3.479109e-05
3.479122e-05
3.479153e-05
3.479187e-05
3.479225e-05
3.479266e-05
3.479309e-05
3.479352e-05
3.479396e-05
3.479441e-05
3.479487e-05
3.479533e-05
3.47958e-05
3.479628e-05
3.479678e-05
3.479728e-05
3.479779e-05
3.479832e-05
3.479885e-05
3.47994e-05
3.479997e-05
3.480055e-05
3.480114e-05
3.480176e-05
3.480239e-05
3.480304e-05
3.480371e-05
3.480441e-05
3.480517e-05
3.480611e-05
3.479122e-05
3.479133e-05
3.479163e-05
3.479196e-05
3.479232e-05
3.479271e-05
3.479312e-05
3.479353e-05
3.479395e-05
3.479437e-05
3.47948e-05
3.479523e-05
3.479567e-05
3.479612e-05
3.479657e-05
3.479703e-05
3.479751e-05
3.479799e-05
3.479848e-05
3.479898e-05
3.47995e-05
3.480003e-05
3.480058e-05
3.480114e-05
3.480172e-05
3.480232e-05
3.480294e-05
3.480359e-05
3.48043e-05
3.480521e-05
3.479141e-05
3.479152e-05
3.479181e-05
3.479214e-05
3.47925e-05
3.479288e-05
3.479327e-05
3.479367e-05
3.479407e-05
3.479447e-05
3.479487e-05
3.479528e-05
3.479569e-05
3.47961e-05
3.479652e-05
3.479694e-05
3.479736e-05
3.479778e-05
3.479821e-05
3.479865e-05
3.479908e-05
3.479952e-05
3.479996e-05
3.48004e-05
3.480085e-05
3.480129e-05
3.480174e-05
3.480221e-05
3.480269e-05
3.480334e-05
3.479148e-05
3.479159e-05
3.479188e-05
3.479221e-05
3.479258e-05
3.479297e-05
3.479338e-05
3.479378e-05
3.47942e-05
3.479461e-05
3.479503e-05
3.479546e-05
3.479589e-05
3.479633e-05
3.479677e-05
3.479722e-05
3.479767e-05
3.479813e-05
3.47986e-05
3.479907e-05
3.479956e-05
3.480005e-05
3.480055e-05
3.480105e-05
3.480157e-05
3.48021e-05
3.480263e-05
3.480319e-05
3.480381e-05
3.480451e-05
3.479136e-05
3.479147e-05
3.479177e-05
3.479209e-05
3.479246e-05
3.479286e-05
3.479328e-05
3.47937e-05
3.479413e-05
3.479456e-05
3.4795e-05
3.479544e-05
3.479589e-05
3.479635e-05
3.479681e-05
3.479728e-05
3.479776e-05
3.479825e-05
3.479875e-05
3.479926e-05
3.479978e-05
3.480031e-05
3.480085e-05
3.480141e-05
3.480198e-05
3.480257e-05
3.480318e-05
3.480382e-05
3.480453e-05
3.480528e-05
3.479884e-05
3.47985e-05
3.479837e-05
3.479837e-05
3.479843e-05
3.479851e-05
3.479862e-05
3.479875e-05
3.47989e-05
3.479906e-05
3.479924e-05
3.479944e-05
3.479966e-05
3.47999e-05
3.480015e-05
3.480042e-05
3.480071e-05
3.480102e-05
3.480135e-05
3.480171e-05
3.480208e-05
3.480248e-05
3.480291e-05
3.480336e-05
3.480383e-05
3.480434e-05
3.480487e-05
3.480546e-05
3.480609e-05
3.4807e-05
3.479875e-05
3.479841e-05
3.479828e-05
3.479826e-05
3.47983e-05
3.479836e-05
3.479846e-05
3.479857e-05
3.47987e-05
3.479885e-05
3.479901e-05
3.479918e-05
3.479937e-05
3.479957e-05
3.479979e-05
3.480002e-05
3.480026e-05
3.480051e-05
3.480078e-05
3.480106e-05
3.480135e-05
3.480166e-05
3.480198e-05
3.480231e-05
3.480266e-05
3.480302e-05
3.480339e-05
3.480379e-05
3.480421e-05
3.480488e-05
3.479857e-05
3.479823e-05
3.479809e-05
3.479805e-05
3.479808e-05
3.479814e-05
3.479822e-05
3.479833e-05
3.479844e-05
3.479856e-05
3.47987e-05
3.479886e-05
3.479902e-05
3.47992e-05
3.479938e-05
3.479958e-05
3.479979e-05
3.480001e-05
3.480024e-05
3.480048e-05
3.480073e-05
3.480099e-05
3.480127e-05
3.480155e-05
3.480185e-05
3.480216e-05
3.480249e-05
3.480283e-05
3.480325e-05
3.480377e-05
3.479852e-05
3.479819e-05
3.479805e-05
3.479803e-05
3.479807e-05
3.479814e-05
3.479824e-05
3.479835e-05
3.479847e-05
3.479861e-05
3.479876e-05
3.479893e-05
3.479911e-05
3.47993e-05
3.47995e-05
3.479972e-05
3.479995e-05
3.480019e-05
3.480044e-05
3.480071e-05
3.480099e-05
3.480129e-05
3.48016e-05
3.480192e-05
3.480226e-05
3.480262e-05
3.480299e-05
3.480339e-05
3.480382e-05
3.480442e-05
3.479736e-05
3.479704e-05
3.479691e-05
3.479688e-05
3.479691e-05
3.479698e-05
3.479707e-05
3.479718e-05
3.479729e-05
3.479743e-05
3.479757e-05
3.479773e-05
3.479789e-05
3.479807e-05
3.479827e-05
3.479847e-05
3.479869e-05
3.479893e-05
3.479918e-05
3.479944e-05
3.479972e-05
3.480001e-05
3.480032e-05
3.480065e-05
3.480099e-05
3.480135e-05
3.480173e-05
3.480214e-05
3.480258e-05
3.480319e-05
3.479735e-05
3.479702e-05
3.479689e-05
3.479685e-05
3.479687e-05
3.479693e-05
3.479701e-05
3.479711e-05
3.479722e-05
3.479734e-05
3.479747e-05
3.479761e-05
3.479777e-05
3.479793e-05
3.479811e-05
3.479829e-05
3.479849e-05
3.479869e-05
3.479891e-05
3.479914e-05
3.479937e-05
3.479962e-05
3.479987e-05
3.480013e-05
3.48004e-05
3.480069e-05
3.480097e-05
3.480128e-05
3.480161e-05
3.480211e-05
3.479732e-05
3.479699e-05
3.479685e-05
3.47968e-05
3.479681e-05
3.479686e-05
3.479694e-05
3.479704e-05
3.479715e-05
3.479727e-05
3.479739e-05
3.479753e-05
3.479767e-05
3.479783e-05
3.479799e-05
3.479817e-05
3.479836e-05
3.479856e-05
3.479876e-05
3.479898e-05
3.479921e-05
3.479945e-05
3.479971e-05
3.479997e-05
3.480024e-05
3.480053e-05
3.480083e-05
3.480115e-05
3.480153e-05
3.480206e-05
3.479731e-05
3.4797e-05
3.479687e-05
3.479683e-05
3.479686e-05
3.479694e-05
3.479702e-05
3.479712e-05
3.479723e-05
3.479735e-05
3.479748e-05
3.479763e-05
3.479779e-05
3.479797e-05
3.479815e-05
3.479835e-05
3.479856e-05
3.479878e-05
3.479901e-05
3.479926e-05
3.479952e-05
3.479979e-05
3.480008e-05
3.480039e-05
3.48007e-05
3.480104e-05
3.480139e-05
3.480176e-05
3.480217e-05
3.480273e-05
3.479688e-05
3.479657e-05
3.479644e-05
3.47964e-05
3.479642e-05
3.479647e-05
3.479655e-05
3.479664e-05
3.479675e-05
3.479686e-05
3.479698e-05
3.479712e-05
3.479728e-05
3.479744e-05
3.479762e-05
3.479781e-05
3.479801e-05
3.479823e-05
3.479846e-05
3.47987e-05
3.479896e-05
3.479923e-05
3.479951e-05
3.479981e-05
3.480013e-05
3.480046e-05
3.480081e-05
3.480119e-05
3.48016e-05
3.480216e-05
3.479683e-05
3.479651e-05
3.479637e-05
3.479632e-05
3.479633e-05
3.479638e-05
3.479644e-05
3.479653e-05
3.479662e-05
3.479674e-05
3.479686e-05
3.479699e-05
3.479713e-05
3.479727e-05
3.479743e-05
3.47976e-05
3.479778e-05
3.479797e-05
3.479817e-05
3.479837e-05
3.479859e-05
3.479881e-05
3.479904e-05
3.479928e-05
3.479953e-05
3.479979e-05
3.480005e-05
3.480033e-05
3.480064e-05
3.480112e-05
3.479683e-05
3.479651e-05
3.479637e-05
3.479632e-05
3.479632e-05
3.479636e-05
3.479643e-05
3.479651e-05
3.47966e-05
3.479671e-05
3.479682e-05
3.479694e-05
3.479708e-05
3.479723e-05
3.479739e-05
3.479756e-05
3.479773e-05
3.479792e-05
3.479811e-05
3.479831e-05
3.479853e-05
3.479875e-05
3.479898e-05
3.479922e-05
3.479947e-05
3.479973e-05
3.48e-05
3.480028e-05
3.48006e-05
3.480109e-05
3.479688e-05
3.479657e-05
3.479645e-05
3.479641e-05
3.479643e-05
3.479648e-05
3.479656e-05
3.479664e-05
3.479673e-05
3.479684e-05
3.479696e-05
3.47971e-05
3.479725e-05
3.479741e-05
3.479758e-05
3.479777e-05
3.479797e-05
3.479818e-05
3.47984e-05
3.479864e-05
3.479888e-05
3.479915e-05
3.479943e-05
3.479972e-05
3.480002e-05
3.480035e-05
3.480069e-05
3.480105e-05
3.480145e-05
3.480199e-05
3.479673e-05
3.479642e-05
3.47963e-05
3.479626e-05
3.479628e-05
3.479633e-05
3.47964e-05
3.479648e-05
3.479657e-05
3.479668e-05
3.479681e-05
3.479695e-05
3.47971e-05
3.479725e-05
3.479743e-05
3.479761e-05
3.47978e-05
3.479801e-05
3.479823e-05
3.479847e-05
3.479871e-05
3.479898e-05
3.479925e-05
3.479954e-05
3.479985e-05
3.480017e-05
3.480051e-05
3.480087e-05
3.480126e-05
3.480181e-05
3.479667e-05
3.479635e-05
3.479621e-05
3.479616e-05
3.479617e-05
3.479622e-05
3.479628e-05
3.479637e-05
3.479647e-05
3.479658e-05
3.479669e-05
3.479682e-05
3.479695e-05
3.479709e-05
3.479725e-05
3.479741e-05
3.479758e-05
3.479776e-05
3.479795e-05
3.479815e-05
3.479836e-05
3.479858e-05
3.47988e-05
3.479903e-05
3.479927e-05
3.479952e-05
3.479978e-05
3.480005e-05
3.480036e-05
3.480084e-05
3.479667e-05
3.479635e-05
3.479622e-05
3.479617e-05
3.479618e-05
3.479622e-05
3.479629e-05
3.479636e-05
3.479646e-05
3.479657e-05
3.479668e-05
3.47968e-05
3.479694e-05
3.479708e-05
3.479723e-05
3.47974e-05
3.479757e-05
3.479776e-05
3.479795e-05
3.479815e-05
3.479836e-05
3.479858e-05
3.47988e-05
3.479904e-05
3.479928e-05
3.479953e-05
3.479979e-05
3.480007e-05
3.480037e-05
3.480085e-05
3.479673e-05
3.479642e-05
3.479629e-05
3.479626e-05
3.479628e-05
3.479633e-05
3.47964e-05
3.479648e-05
3.479658e-05
3.479669e-05
3.479682e-05
3.479695e-05
3.47971e-05
3.479726e-05
3.479743e-05
3.479761e-05
3.479781e-05
3.479802e-05
3.479824e-05
3.479847e-05
3.479872e-05
3.479899e-05
3.479926e-05
3.479955e-05
3.479986e-05
3.480018e-05
3.480052e-05
3.480089e-05
3.480128e-05
3.480183e-05
3.479691e-05
3.479659e-05
3.479647e-05
3.479643e-05
3.479644e-05
3.479649e-05
3.479656e-05
3.479665e-05
3.479674e-05
3.479685e-05
3.479698e-05
3.479711e-05
3.479726e-05
3.479743e-05
3.47976e-05
3.479779e-05
3.479799e-05
3.47982e-05
3.479842e-05
3.479865e-05
3.47989e-05
3.479917e-05
3.479944e-05
3.479973e-05
3.480004e-05
3.480036e-05
3.48007e-05
3.480106e-05
3.480146e-05
3.4802e-05
3.479686e-05
3.479654e-05
3.47964e-05
3.479635e-05
3.479635e-05
3.479639e-05
3.479646e-05
3.479653e-05
3.479662e-05
3.479673e-05
3.479685e-05
3.479698e-05
3.479712e-05
3.479727e-05
3.479743e-05
3.47976e-05
3.479777e-05
3.479795e-05
3.479815e-05
3.479835e-05
3.479856e-05
3.479878e-05
3.479901e-05
3.479924e-05
3.479949e-05
3.479975e-05
3.480001e-05
3.48003e-05
3.480062e-05
3.480112e-05
3.479684e-05
3.479652e-05
3.479639e-05
3.479634e-05
3.479635e-05
3.47964e-05
3.479647e-05
3.479656e-05
3.479666e-05
3.479677e-05
3.47969e-05
3.479703e-05
3.479716e-05
3.479731e-05
3.479747e-05
3.479763e-05
3.479781e-05
3.4798e-05
3.47982e-05
3.47984e-05
3.479862e-05
3.479885e-05
3.479908e-05
3.479932e-05
3.479957e-05
3.479983e-05
3.480009e-05
3.480037e-05
3.480068e-05
3.480116e-05
3.47969e-05
3.479658e-05
3.479646e-05
3.479642e-05
3.479644e-05
3.47965e-05
3.479657e-05
3.479666e-05
3.479676e-05
3.479687e-05
3.4797e-05
3.479714e-05
3.47973e-05
3.479746e-05
3.479764e-05
3.479783e-05
3.479804e-05
3.479825e-05
3.479848e-05
3.479872e-05
3.479898e-05
3.479925e-05
3.479953e-05
3.479984e-05
3.480015e-05
3.480049e-05
3.480083e-05
3.480121e-05
3.480162e-05
3.480219e-05
3.479732e-05
3.4797e-05
3.479687e-05
3.479684e-05
3.479687e-05
3.479694e-05
3.479703e-05
3.479713e-05
3.479724e-05
3.479736e-05
3.479749e-05
3.479763e-05
3.479779e-05
3.479796e-05
3.479814e-05
3.479834e-05
3.479855e-05
3.479878e-05
3.479901e-05
3.479926e-05
3.479952e-05
3.47998e-05
3.480009e-05
3.480039e-05
3.480071e-05
3.480105e-05
3.48014e-05
3.480178e-05
3.480218e-05
3.480274e-05
3.479732e-05
3.479699e-05
3.479685e-05
3.479681e-05
3.479682e-05
3.479687e-05
3.479694e-05
3.479703e-05
3.479713e-05
3.479725e-05
3.479737e-05
3.479751e-05
3.479766e-05
3.479782e-05
3.4798e-05
3.479818e-05
3.479837e-05
3.479856e-05
3.479877e-05
3.479899e-05
3.479922e-05
3.479946e-05
3.479972e-05
3.479998e-05
3.480025e-05
3.480054e-05
3.480084e-05
3.480117e-05
3.480154e-05
3.480207e-05
3.479737e-05
3.479704e-05
3.47969e-05
3.479686e-05
3.479689e-05
3.479694e-05
3.479702e-05
3.479712e-05
3.479723e-05
3.479735e-05
3.479748e-05
3.479762e-05
3.479778e-05
3.479794e-05
3.479811e-05
3.47983e-05
3.479849e-05
3.47987e-05
3.479892e-05
3.479914e-05
3.479938e-05
3.479962e-05
3.479988e-05
3.480014e-05
3.480042e-05
3.48007e-05
3.480098e-05
3.480129e-05
3.480163e-05
3.480212e-05
3.479738e-05
3.479706e-05
3.479693e-05
3.47969e-05
3.479694e-05
3.479701e-05
3.47971e-05
3.47972e-05
3.479732e-05
3.479744e-05
3.479758e-05
3.479774e-05
3.47979e-05
3.479809e-05
3.479828e-05
3.479849e-05
3.479871e-05
3.479894e-05
3.479919e-05
3.479946e-05
3.479973e-05
3.480003e-05
3.480034e-05
3.480066e-05
3.480101e-05
3.480137e-05
3.480175e-05
3.480216e-05
3.48026e-05
3.480321e-05
3.479853e-05
3.47982e-05
3.479807e-05
3.479805e-05
3.479809e-05
3.479816e-05
3.479825e-05
3.479837e-05
3.479849e-05
3.479863e-05
3.479878e-05
3.479895e-05
3.479912e-05
3.479931e-05
3.479952e-05
3.479973e-05
3.479996e-05
3.480021e-05
3.480046e-05
3.480073e-05
3.480101e-05
3.480131e-05
3.480162e-05
3.480195e-05
3.480229e-05
3.480265e-05
3.480302e-05
3.480342e-05
3.480386e-05
3.480445e-05
3.479859e-05
3.479824e-05
3.47981e-05
3.479806e-05
3.479809e-05
3.479815e-05
3.479824e-05
3.479834e-05
3.479846e-05
3.479858e-05
3.479873e-05
3.479888e-05
3.479905e-05
3.479923e-05
3.479941e-05
3.479961e-05
3.479982e-05
3.480004e-05
3.480026e-05
3.48005e-05
3.480076e-05
3.480102e-05
3.48013e-05
3.480158e-05
3.480188e-05
3.48022e-05
3.480252e-05
3.480287e-05
3.480329e-05
3.480381e-05
3.479877e-05
3.479843e-05
3.47983e-05
3.479827e-05
3.479831e-05
3.479839e-05
3.479848e-05
3.47986e-05
3.479873e-05
3.479888e-05
3.479904e-05
3.479922e-05
3.47994e-05
3.479961e-05
3.479982e-05
3.480005e-05
3.480029e-05
3.480054e-05
3.480081e-05
3.480109e-05
3.480138e-05
3.480169e-05
3.480201e-05
3.480234e-05
3.480269e-05
3.480305e-05
3.480343e-05
3.480383e-05
3.480425e-05
3.480491e-05
3.479886e-05
3.479852e-05
3.47984e-05
3.47984e-05
3.479846e-05
3.479854e-05
3.479865e-05
3.479878e-05
3.479892e-05
3.479909e-05
3.479927e-05
3.479947e-05
3.479969e-05
3.479993e-05
3.480018e-05
3.480045e-05
3.480074e-05
3.480106e-05
3.480139e-05
3.480174e-05
3.480212e-05
3.480251e-05
3.480294e-05
3.480339e-05
3.480386e-05
3.480437e-05
3.480491e-05
3.480549e-05
3.480612e-05
3.480704e-05
3.479259e-05
3.479222e-05
3.479197e-05
3.479179e-05
3.479163e-05
3.479148e-05
3.479135e-05
3.479123e-05
3.479111e-05
3.479101e-05
3.479091e-05
3.479082e-05
3.479073e-05
3.479064e-05
3.479056e-05
3.479048e-05
3.47904e-05
3.479033e-05
3.479026e-05
3.47902e-05
3.479014e-05
3.479008e-05
3.479004e-05
3.478999e-05
3.478996e-05
3.478994e-05
3.478992e-05
3.478993e-05
3.478995e-05
3.479006e-05
3.47926e-05
3.479221e-05
3.479196e-05
3.479177e-05
3.47916e-05
3.479144e-05
3.479128e-05
3.479113e-05
3.4791e-05
3.479087e-05
3.479075e-05
3.479063e-05
3.479052e-05
3.47904e-05
3.479028e-05
3.479017e-05
3.479005e-05
3.478993e-05
3.478981e-05
3.478969e-05
3.478957e-05
3.478945e-05
3.478933e-05
3.478921e-05
3.478909e-05
3.478896e-05
3.478884e-05
3.478873e-05
3.478863e-05
3.478861e-05
3.479248e-05
3.47921e-05
3.479184e-05
3.479165e-05
3.479146e-05
3.479128e-05
3.47911e-05
3.479093e-05
3.479077e-05
3.479063e-05
3.479049e-05
3.479035e-05
3.479021e-05
3.479006e-05
3.478992e-05
3.478977e-05
3.478962e-05
3.478947e-05
3.478931e-05
3.478915e-05
3.478899e-05
3.478882e-05
3.478864e-05
3.478846e-05
3.478827e-05
3.478807e-05
3.478787e-05
3.478766e-05
3.478745e-05
3.478733e-05
3.479236e-05
3.479199e-05
3.479173e-05
3.479154e-05
3.479135e-05
3.479117e-05
3.479099e-05
3.479083e-05
3.479067e-05
3.479052e-05
3.479037e-05
3.479022e-05
3.479007e-05
3.478991e-05
3.478976e-05
3.47896e-05
3.478944e-05
3.478927e-05
3.47891e-05
3.478893e-05
3.478875e-05
3.478857e-05
3.478838e-05
3.478819e-05
3.478798e-05
3.478778e-05
3.478756e-05
3.478734e-05
3.478712e-05
3.478695e-05
3.479037e-05
3.479e-05
3.478974e-05
3.478954e-05
3.478934e-05
3.478914e-05
3.478894e-05
3.478875e-05
3.478857e-05
3.47884e-05
3.478823e-05
3.478806e-05
3.478789e-05
3.478771e-05
3.478754e-05
3.478737e-05
3.478719e-05
3.478701e-05
3.478683e-05
3.478664e-05
3.478646e-05
3.478627e-05
3.478608e-05
3.478588e-05
3.478568e-05
3.478549e-05
3.478529e-05
3.478509e-05
3.47849e-05
3.478474e-05
3.47904e-05
3.479002e-05
3.478976e-05
3.478955e-05
3.478935e-05
3.478914e-05
3.478893e-05
3.478873e-05
3.478854e-05
3.478836e-05
3.478818e-05
3.4788e-05
3.478782e-05
3.478763e-05
3.478744e-05
3.478725e-05
3.478705e-05
3.478685e-05
3.478664e-05
3.478643e-05
3.478621e-05
3.478598e-05
3.478575e-05
3.478551e-05
3.478527e-05
3.478502e-05
3.478476e-05
3.47845e-05
3.478424e-05
3.4784e-05
3.479034e-05
3.478997e-05
3.47897e-05
3.47895e-05
3.478929e-05
3.478908e-05
3.478887e-05
3.478867e-05
3.478848e-05
3.478829e-05
3.47881e-05
3.478792e-05
3.478773e-05
3.478754e-05
3.478735e-05
3.478715e-05
3.478695e-05
3.478674e-05
3.478653e-05
3.478631e-05
3.478609e-05
3.478586e-05
3.478563e-05
3.478539e-05
3.478514e-05
3.478488e-05
3.478462e-05
3.478434e-05
3.478406e-05
3.47838e-05
3.479026e-05
3.47899e-05
3.478964e-05
3.478943e-05
3.478922e-05
3.478901e-05
3.47888e-05
3.47886e-05
3.47884e-05
3.478821e-05
3.478802e-05
3.478783e-05
3.478764e-05
3.478744e-05
3.478724e-05
3.478703e-05
3.478682e-05
3.478661e-05
3.478639e-05
3.478616e-05
3.478592e-05
3.478568e-05
3.478543e-05
3.478518e-05
3.478491e-05
3.478464e-05
3.478436e-05
3.478408e-05
3.478379e-05
3.478355e-05
3.478943e-05
3.478907e-05
3.478881e-05
3.47886e-05
3.478841e-05
3.47882e-05
3.478799e-05
3.47878e-05
3.478761e-05
3.478743e-05
3.478724e-05
3.478705e-05
3.478686e-05
3.478667e-05
3.478647e-05
3.478627e-05
3.478607e-05
3.478586e-05
3.478564e-05
3.478542e-05
3.478519e-05
3.478496e-05
3.478473e-05
3.478448e-05
3.478423e-05
3.478397e-05
3.478371e-05
3.478345e-05
3.478318e-05
3.478295e-05
3.47895e-05
3.478913e-05
3.478887e-05
3.478866e-05
3.478845e-05
3.478824e-05
3.478804e-05
3.478784e-05
3.478765e-05
3.478746e-05
3.478727e-05
3.478708e-05
3.478689e-05
3.478669e-05
3.478648e-05
3.478628e-05
3.478606e-05
3.478585e-05
3.478562e-05
3.478539e-05
3.478515e-05
3.478491e-05
3.478466e-05
3.47844e-05
3.478413e-05
3.478386e-05
3.478358e-05
3.478329e-05
3.4783e-05
3.478272e-05
3.478949e-05
3.478912e-05
3.478886e-05
3.478865e-05
3.478844e-05
3.478823e-05
3.478802e-05
3.478783e-05
3.478764e-05
3.478745e-05
3.478726e-05
3.478707e-05
3.478687e-05
3.478667e-05
3.478647e-05
3.478626e-05
3.478605e-05
3.478583e-05
3.47856e-05
3.478537e-05
3.478513e-05
3.478489e-05
3.478463e-05
3.478437e-05
3.478411e-05
3.478383e-05
3.478355e-05
3.478326e-05
3.478296e-05
3.478268e-05
3.478941e-05
3.478905e-05
3.478879e-05
3.478858e-05
3.478838e-05
3.478817e-05
3.478796e-05
3.478777e-05
3.478758e-05
3.478739e-05
3.47872e-05
3.4787e-05
3.47868e-05
3.47866e-05
3.47864e-05
3.478619e-05
3.478598e-05
3.478576e-05
3.478554e-05
3.478531e-05
3.478507e-05
3.478483e-05
3.478458e-05
3.478432e-05
3.478405e-05
3.478378e-05
3.47835e-05
3.478321e-05
3.478293e-05
3.478268e-05
3.478921e-05
3.478885e-05
3.478859e-05
3.478838e-05
3.478818e-05
3.478797e-05
3.478777e-05
3.478757e-05
3.478738e-05
3.478719e-05
3.478699e-05
3.47868e-05
3.47866e-05
3.47864e-05
3.47862e-05
3.478599e-05
3.478578e-05
3.478556e-05
3.478534e-05
3.478511e-05
3.478487e-05
3.478463e-05
3.478438e-05
3.478412e-05
3.478386e-05
3.478359e-05
3.478331e-05
3.478302e-05
3.478275e-05
3.47825e-05
3.47893e-05
3.478894e-05
3.478867e-05
3.478846e-05
3.478826e-05
3.478804e-05
3.478784e-05
3.478763e-05
3.478744e-05
3.478724e-05
3.478705e-05
3.478686e-05
3.478666e-05
3.478645e-05
3.478625e-05
3.478604e-05
3.478582e-05
3.47856e-05
3.478537e-05
3.478514e-05
3.478489e-05
3.478465e-05
3.478439e-05
3.478413e-05
3.478386e-05
3.478359e-05
3.47833e-05
3.478301e-05
3.478271e-05
3.478242e-05
3.478929e-05
3.478893e-05
3.478866e-05
3.478845e-05
3.478825e-05
3.478804e-05
3.478783e-05
3.478763e-05
3.478744e-05
3.478725e-05
3.478706e-05
3.478686e-05
3.478667e-05
3.478647e-05
3.478626e-05
3.478605e-05
3.478583e-05
3.478561e-05
3.478538e-05
3.478514e-05
3.47849e-05
3.478465e-05
3.478439e-05
3.478413e-05
3.478386e-05
3.478358e-05
3.478329e-05
3.4783e-05
3.47827e-05
3.478241e-05
3.478922e-05
3.478886e-05
3.47886e-05
3.478839e-05
3.478819e-05
3.478798e-05
3.478777e-05
3.478757e-05
3.478738e-05
3.478719e-05
3.4787e-05
3.478681e-05
3.478661e-05
3.478641e-05
3.478621e-05
3.4786e-05
3.478579e-05
3.478557e-05
3.478535e-05
3.478511e-05
3.478488e-05
3.478463e-05
3.478438e-05
3.478412e-05
3.478386e-05
3.478359e-05
3.47833e-05
3.478302e-05
3.478275e-05
3.47825e-05
3.478941e-05
3.478905e-05
3.478879e-05
3.478858e-05
3.478838e-05
3.478817e-05
3.478797e-05
3.478777e-05
3.478758e-05
3.478739e-05
3.47872e-05
3.478701e-05
3.478681e-05
3.478661e-05
3.478641e-05
3.47862e-05
3.478599e-05
3.478578e-05
3.478555e-05
3.478533e-05
3.478509e-05
3.478485e-05
3.47846e-05
3.478434e-05
3.478407e-05
3.47838e-05
3.478352e-05
3.478323e-05
3.478295e-05
3.478271e-05
3.47895e-05
3.478914e-05
3.478887e-05
3.478866e-05
3.478846e-05
3.478825e-05
3.478805e-05
3.478785e-05
3.478766e-05
3.478747e-05
3.478728e-05
3.478709e-05
3.478689e-05
3.478668e-05
3.478647e-05
3.478626e-05
3.478605e-05
3.478583e-05
3.478561e-05
3.478538e-05
3.478514e-05
3.47849e-05
3.478465e-05
3.478439e-05
3.478413e-05
3.478386e-05
3.478357e-05
3.478329e-05
3.478299e-05
3.47827e-05
3.478955e-05
3.478918e-05
3.478892e-05
3.478871e-05
3.478851e-05
3.47883e-05
3.478809e-05
3.478788e-05
3.478769e-05
3.478749e-05
3.47873e-05
3.47871e-05
3.478691e-05
3.478671e-05
3.478651e-05
3.47863e-05
3.478609e-05
3.478587e-05
3.478564e-05
3.478541e-05
3.478517e-05
3.478493e-05
3.478468e-05
3.478442e-05
3.478415e-05
3.478388e-05
3.47836e-05
3.478331e-05
3.478302e-05
3.478274e-05
3.478947e-05
3.478911e-05
3.478885e-05
3.478864e-05
3.478844e-05
3.478823e-05
3.478803e-05
3.478783e-05