/*--------------------------------*- C++ -*----------------------------------*\
| =========                 |                                                 |
| \\      /  F ield         | OpenFOAM: The Open Source CFD Toolbox           |
|  \\    /   O peration     | Version:  4.0                                   |
|   \\  /    A nd           | Web:      www.OpenFOAM.org                      |
|    \\/     M anipulation  |                                                 |
\*---------------------------------------------------------------------------*/
FoamFile
{
    version     2.0;
    format      ascii;
    class       volScalarField;
    location    "120/air";
    object      diffO2air;
}
// * * * * * * * * * * * * * * * * * * * * * * * * * * * * * * * * * * * * * //

dimensions      [0 2 -1 0 0 0 0];

internalField   nonuniform List<scalar> 
39776
(
2.94213e-05
2.94169e-05
2.941373e-05
2.941137e-05
2.940956e-05
2.940815e-05
2.940703e-05
2.940614e-05
2.940542e-05
2.940484e-05
2.940436e-05
2.940397e-05
2.940366e-05
2.94034e-05
2.940319e-05
2.940303e-05
2.940289e-05
2.94028e-05
2.940273e-05
2.94027e-05
2.940271e-05
2.940277e-05
2.94029e-05
2.940315e-05
2.940357e-05
2.940426e-05
2.940538e-05
2.94072e-05
2.941014e-05
2.941494e-05
2.942101e-05
2.941621e-05
2.941269e-05
2.941001e-05
2.940791e-05
2.940624e-05
2.940489e-05
2.940378e-05
2.940287e-05
2.940212e-05
2.940149e-05
2.940097e-05
2.940053e-05
2.940017e-05
2.939987e-05
2.939962e-05
2.939941e-05
2.939925e-05
2.939914e-05
2.939906e-05
2.939903e-05
2.939907e-05
2.93992e-05
2.939945e-05
2.939988e-05
2.940061e-05
2.940181e-05
2.940373e-05
2.940683e-05
2.941182e-05
2.942095e-05
2.941615e-05
2.941264e-05
2.940996e-05
2.940787e-05
2.940621e-05
2.940486e-05
2.940375e-05
2.940285e-05
2.940209e-05
2.940147e-05
2.940094e-05
2.940051e-05
2.940015e-05
2.939984e-05
2.93996e-05
2.939939e-05
2.939924e-05
2.939912e-05
2.939904e-05
2.939902e-05
2.939906e-05
2.939919e-05
2.939944e-05
2.939988e-05
2.940062e-05
2.940181e-05
2.940373e-05
2.940681e-05
2.941176e-05
2.94211e-05
2.941672e-05
2.941357e-05
2.941122e-05
2.940942e-05
2.940801e-05
2.94069e-05
2.940601e-05
2.940529e-05
2.940471e-05
2.940423e-05
2.940385e-05
2.940353e-05
2.940327e-05
2.940306e-05
2.940289e-05
2.940276e-05
2.940266e-05
2.940259e-05
2.940256e-05
2.940257e-05
2.940262e-05
2.940276e-05
2.9403e-05
2.940341e-05
2.940409e-05
2.940518e-05
2.940696e-05
2.940982e-05
2.941448e-05
2.942099e-05
2.941663e-05
2.94135e-05
2.941116e-05
2.940937e-05
2.940797e-05
2.940687e-05
2.940598e-05
2.940527e-05
2.940469e-05
2.940421e-05
2.940383e-05
2.940352e-05
2.940326e-05
2.940305e-05
2.940288e-05
2.940275e-05
2.940265e-05
2.940259e-05
2.940255e-05
2.940256e-05
2.940262e-05
2.940275e-05
2.940299e-05
2.940339e-05
2.940406e-05
2.940515e-05
2.94069e-05
2.940974e-05
2.941436e-05
2.942075e-05
2.9416e-05
2.941251e-05
2.940986e-05
2.940778e-05
2.940613e-05
2.940479e-05
2.94037e-05
2.94028e-05
2.940205e-05
2.940143e-05
2.940091e-05
2.940048e-05
2.940012e-05
2.939982e-05
2.939957e-05
2.939937e-05
2.939922e-05
2.93991e-05
2.939903e-05
2.9399e-05
2.939904e-05
2.939917e-05
2.939941e-05
2.939985e-05
2.940057e-05
2.940175e-05
2.940365e-05
2.940669e-05
2.941157e-05
2.942072e-05
2.941597e-05
2.941249e-05
2.940984e-05
2.940777e-05
2.940612e-05
2.940478e-05
2.940369e-05
2.940279e-05
2.940204e-05
2.940142e-05
2.940091e-05
2.940047e-05
2.940011e-05
2.939982e-05
2.939957e-05
2.939937e-05
2.939921e-05
2.93991e-05
2.939902e-05
2.9399e-05
2.939904e-05
2.939916e-05
2.939941e-05
2.939985e-05
2.940057e-05
2.940175e-05
2.940364e-05
2.940668e-05
2.941155e-05
2.94209e-05
2.941655e-05
2.941343e-05
2.94111e-05
2.940932e-05
2.940793e-05
2.940682e-05
2.940594e-05
2.940523e-05
2.940465e-05
2.940418e-05
2.940379e-05
2.940348e-05
2.940323e-05
2.940302e-05
2.940285e-05
2.940272e-05
2.940262e-05
2.940255e-05
2.940252e-05
2.940253e-05
2.940258e-05
2.940272e-05
2.940296e-05
2.940336e-05
2.940403e-05
2.940511e-05
2.940687e-05
2.94097e-05
2.94143e-05
2.942085e-05
2.941651e-05
2.94134e-05
2.941108e-05
2.94093e-05
2.940791e-05
2.940681e-05
2.940593e-05
2.940522e-05
2.940464e-05
2.940417e-05
2.940379e-05
2.940348e-05
2.940322e-05
2.940301e-05
2.940285e-05
2.940272e-05
2.940262e-05
2.940255e-05
2.940252e-05
2.940252e-05
2.940258e-05
2.940271e-05
2.940295e-05
2.940336e-05
2.940402e-05
2.940511e-05
2.940685e-05
2.940968e-05
2.941428e-05
2.942063e-05
2.94159e-05
2.941243e-05
2.940979e-05
2.940773e-05
2.940608e-05
2.940475e-05
2.940367e-05
2.940277e-05
2.940203e-05
2.940141e-05
2.940089e-05
2.940046e-05
2.94001e-05
2.939981e-05
2.939956e-05
2.939936e-05
2.939921e-05
2.939909e-05
2.939902e-05
2.9399e-05
2.939903e-05
2.939916e-05
2.939941e-05
2.939984e-05
2.940056e-05
2.940174e-05
2.940362e-05
2.940665e-05
2.941151e-05
2.942062e-05
2.941589e-05
2.941242e-05
2.940979e-05
2.940772e-05
2.940608e-05
2.940475e-05
2.940366e-05
2.940276e-05
2.940202e-05
2.94014e-05
2.940089e-05
2.940046e-05
2.94001e-05
2.939981e-05
2.939956e-05
2.939936e-05
2.939921e-05
2.939909e-05
2.939902e-05
2.939899e-05
2.939903e-05
2.939916e-05
2.939941e-05
2.939984e-05
2.940056e-05
2.940174e-05
2.940362e-05
2.940665e-05
2.94115e-05
2.942081e-05
2.941648e-05
2.941337e-05
2.941105e-05
2.940928e-05
2.940789e-05
2.940679e-05
2.940591e-05
2.94052e-05
2.940462e-05
2.940415e-05
2.940377e-05
2.940346e-05
2.940321e-05
2.9403e-05
2.940283e-05
2.94027e-05
2.940261e-05
2.940254e-05
2.94025e-05
2.940251e-05
2.940257e-05
2.94027e-05
2.940294e-05
2.940334e-05
2.940401e-05
2.940509e-05
2.940684e-05
2.940966e-05
2.941425e-05
2.942079e-05
2.941647e-05
2.941336e-05
2.941104e-05
2.940927e-05
2.940788e-05
2.940678e-05
2.940591e-05
2.94052e-05
2.940462e-05
2.940415e-05
2.940377e-05
2.940346e-05
2.94032e-05
2.9403e-05
2.940283e-05
2.94027e-05
2.94026e-05
2.940254e-05
2.94025e-05
2.940251e-05
2.940257e-05
2.94027e-05
2.940294e-05
2.940334e-05
2.940401e-05
2.940509e-05
2.940683e-05
2.940966e-05
2.941424e-05
2.942059e-05
2.941587e-05
2.941241e-05
2.940977e-05
2.940771e-05
2.940607e-05
2.940474e-05
2.940365e-05
2.940276e-05
2.940202e-05
2.94014e-05
2.940089e-05
2.940046e-05
2.94001e-05
2.93998e-05
2.939956e-05
2.939936e-05
2.93992e-05
2.939909e-05
2.939902e-05
2.939899e-05
2.939903e-05
2.939916e-05
2.93994e-05
2.939984e-05
2.940056e-05
2.940173e-05
2.940362e-05
2.940664e-05
2.941149e-05
2.942059e-05
2.941587e-05
2.941241e-05
2.940977e-05
2.940771e-05
2.940607e-05
2.940474e-05
2.940365e-05
2.940276e-05
2.940202e-05
2.94014e-05
2.940089e-05
2.940046e-05
2.94001e-05
2.93998e-05
2.939956e-05
2.939936e-05
2.93992e-05
2.939909e-05
2.939902e-05
2.939899e-05
2.939903e-05
2.939916e-05
2.93994e-05
2.939984e-05
2.940056e-05
2.940173e-05
2.940362e-05
2.940664e-05
2.941149e-05
2.942079e-05
2.941647e-05
2.941336e-05
2.941104e-05
2.940927e-05
2.940788e-05
2.940678e-05
2.940591e-05
2.94052e-05
2.940462e-05
2.940415e-05
2.940377e-05
2.940346e-05
2.94032e-05
2.9403e-05
2.940283e-05
2.94027e-05
2.94026e-05
2.940254e-05
2.94025e-05
2.940251e-05
2.940257e-05
2.94027e-05
2.940294e-05
2.940334e-05
2.940401e-05
2.940509e-05
2.940683e-05
2.940966e-05
2.941424e-05
2.942081e-05
2.941648e-05
2.941337e-05
2.941105e-05
2.940928e-05
2.940789e-05
2.940679e-05
2.940591e-05
2.94052e-05
2.940462e-05
2.940415e-05
2.940377e-05
2.940346e-05
2.940321e-05
2.9403e-05
2.940283e-05
2.94027e-05
2.940261e-05
2.940254e-05
2.94025e-05
2.940251e-05
2.940257e-05
2.94027e-05
2.940294e-05
2.940334e-05
2.940401e-05
2.940509e-05
2.940684e-05
2.940966e-05
2.941425e-05
2.942062e-05
2.941589e-05
2.941242e-05
2.940979e-05
2.940772e-05
2.940608e-05
2.940475e-05
2.940366e-05
2.940276e-05
2.940202e-05
2.94014e-05
2.940089e-05
2.940046e-05
2.94001e-05
2.939981e-05
2.939956e-05
2.939936e-05
2.939921e-05
2.939909e-05
2.939902e-05
2.939899e-05
2.939903e-05
2.939916e-05
2.939941e-05
2.939984e-05
2.940056e-05
2.940174e-05
2.940362e-05
2.940665e-05
2.94115e-05
2.942063e-05
2.94159e-05
2.941243e-05
2.940979e-05
2.940773e-05
2.940608e-05
2.940475e-05
2.940367e-05
2.940277e-05
2.940203e-05
2.940141e-05
2.940089e-05
2.940046e-05
2.94001e-05
2.939981e-05
2.939956e-05
2.939936e-05
2.939921e-05
2.939909e-05
2.939902e-05
2.9399e-05
2.939903e-05
2.939916e-05
2.939941e-05
2.939984e-05
2.940056e-05
2.940174e-05
2.940362e-05
2.940665e-05
2.941151e-05
2.942084e-05
2.941651e-05
2.94134e-05
2.941108e-05
2.94093e-05
2.940791e-05
2.940681e-05
2.940593e-05
2.940522e-05
2.940464e-05
2.940417e-05
2.940379e-05
2.940348e-05
2.940322e-05
2.940301e-05
2.940285e-05
2.940272e-05
2.940262e-05
2.940255e-05
2.940252e-05
2.940252e-05
2.940258e-05
2.940271e-05
2.940295e-05
2.940336e-05
2.940402e-05
2.940511e-05
2.940685e-05
2.940968e-05
2.941428e-05
2.94209e-05
2.941655e-05
2.941343e-05
2.94111e-05
2.940932e-05
2.940793e-05
2.940682e-05
2.940594e-05
2.940523e-05
2.940465e-05
2.940418e-05
2.940379e-05
2.940348e-05
2.940322e-05
2.940302e-05
2.940285e-05
2.940272e-05
2.940262e-05
2.940255e-05
2.940252e-05
2.940253e-05
2.940258e-05
2.940272e-05
2.940296e-05
2.940336e-05
2.940403e-05
2.940512e-05
2.940687e-05
2.94097e-05
2.941431e-05
2.942072e-05
2.941597e-05
2.941249e-05
2.940984e-05
2.940777e-05
2.940612e-05
2.940478e-05
2.940369e-05
2.940279e-05
2.940204e-05
2.940142e-05
2.940091e-05
2.940047e-05
2.940011e-05
2.939982e-05
2.939957e-05
2.939937e-05
2.939921e-05
2.93991e-05
2.939902e-05
2.9399e-05
2.939904e-05
2.939916e-05
2.939941e-05
2.939985e-05
2.940057e-05
2.940175e-05
2.940365e-05
2.940668e-05
2.941156e-05
2.942075e-05
2.9416e-05
2.941251e-05
2.940986e-05
2.940778e-05
2.940613e-05
2.940479e-05
2.94037e-05
2.94028e-05
2.940205e-05
2.940143e-05
2.940091e-05
2.940048e-05
2.940012e-05
2.939982e-05
2.939957e-05
2.939937e-05
2.939922e-05
2.93991e-05
2.939903e-05
2.9399e-05
2.939904e-05
2.939917e-05
2.939941e-05
2.939985e-05
2.940057e-05
2.940175e-05
2.940365e-05
2.940669e-05
2.941157e-05
2.942098e-05
2.941663e-05
2.941349e-05
2.941116e-05
2.940937e-05
2.940797e-05
2.940687e-05
2.940598e-05
2.940527e-05
2.940469e-05
2.940421e-05
2.940383e-05
2.940352e-05
2.940326e-05
2.940305e-05
2.940288e-05
2.940275e-05
2.940265e-05
2.940259e-05
2.940255e-05
2.940256e-05
2.940261e-05
2.940275e-05
2.940299e-05
2.940339e-05
2.940406e-05
2.940515e-05
2.94069e-05
2.940974e-05
2.941436e-05
2.94211e-05
2.941672e-05
2.941357e-05
2.941122e-05
2.940942e-05
2.940801e-05
2.94069e-05
2.940601e-05
2.940529e-05
2.940471e-05
2.940423e-05
2.940385e-05
2.940353e-05
2.940327e-05
2.940306e-05
2.940289e-05
2.940276e-05
2.940266e-05
2.940259e-05
2.940256e-05
2.940256e-05
2.940262e-05
2.940276e-05
2.9403e-05
2.940341e-05
2.940409e-05
2.940518e-05
2.940695e-05
2.940982e-05
2.941447e-05
2.942095e-05
2.941615e-05
2.941264e-05
2.940996e-05
2.940787e-05
2.940621e-05
2.940486e-05
2.940375e-05
2.940285e-05
2.940209e-05
2.940147e-05
2.940094e-05
2.940051e-05
2.940015e-05
2.939984e-05
2.93996e-05
2.939939e-05
2.939924e-05
2.939912e-05
2.939904e-05
2.939902e-05
2.939906e-05
2.939919e-05
2.939944e-05
2.939988e-05
2.940062e-05
2.940181e-05
2.940373e-05
2.940681e-05
2.941175e-05
2.942101e-05
2.941621e-05
2.941268e-05
2.941e-05
2.940791e-05
2.940624e-05
2.940489e-05
2.940378e-05
2.940287e-05
2.940212e-05
2.940149e-05
2.940097e-05
2.940053e-05
2.940017e-05
2.939987e-05
2.939962e-05
2.939941e-05
2.939925e-05
2.939913e-05
2.939906e-05
2.939903e-05
2.939907e-05
2.93992e-05
2.939944e-05
2.939988e-05
2.940061e-05
2.94018e-05
2.940373e-05
2.940682e-05
2.941181e-05
2.94213e-05
2.94169e-05
2.941373e-05
2.941137e-05
2.940956e-05
2.940815e-05
2.940703e-05
2.940614e-05
2.940542e-05
2.940483e-05
2.940436e-05
2.940397e-05
2.940366e-05
2.94034e-05
2.940319e-05
2.940302e-05
2.940289e-05
2.94028e-05
2.940273e-05
2.94027e-05
2.940271e-05
2.940277e-05
2.94029e-05
2.940315e-05
2.940357e-05
2.940426e-05
2.940538e-05
2.94072e-05
2.941014e-05
2.941493e-05
2.942387e-05
2.942175e-05
2.94197e-05
2.94178e-05
2.941607e-05
2.941454e-05
2.94132e-05
2.941205e-05
2.941106e-05
2.941023e-05
2.940953e-05
2.940895e-05
2.940847e-05
2.94081e-05
2.940781e-05
2.94076e-05
2.940747e-05
2.940742e-05
2.940746e-05
2.940759e-05
2.940784e-05
2.940822e-05
2.940878e-05
2.940953e-05
2.941055e-05
2.941188e-05
2.94136e-05
2.941577e-05
2.941845e-05
2.942165e-05
2.942347e-05
2.94207e-05
2.941805e-05
2.941559e-05
2.941337e-05
2.941139e-05
2.940965e-05
2.940813e-05
2.940683e-05
2.940571e-05
2.940475e-05
2.940394e-05
2.940326e-05
2.94027e-05
2.940225e-05
2.940189e-05
2.940164e-05
2.940149e-05
2.940144e-05
2.940151e-05
2.940172e-05
2.94021e-05
2.940269e-05
2.940355e-05
2.940472e-05
2.94063e-05
2.940838e-05
2.941105e-05
2.941438e-05
2.941841e-05
2.942341e-05
2.942064e-05
2.941799e-05
2.941553e-05
2.94133e-05
2.941132e-05
2.940958e-05
2.940807e-05
2.940676e-05
2.940564e-05
2.940469e-05
2.940388e-05
2.940321e-05
2.940265e-05
2.94022e-05
2.940185e-05
2.94016e-05
2.940145e-05
2.940141e-05
2.940149e-05
2.940171e-05
2.94021e-05
2.940271e-05
2.940357e-05
2.940476e-05
2.940635e-05
2.940843e-05
2.941108e-05
2.941438e-05
2.941835e-05
2.942366e-05
2.942153e-05
2.941949e-05
2.941758e-05
2.941586e-05
2.941433e-05
2.941299e-05
2.941184e-05
2.941085e-05
2.941001e-05
2.940931e-05
2.940873e-05
2.940826e-05
2.940788e-05
2.940758e-05
2.940737e-05
2.940724e-05
2.940719e-05
2.940722e-05
2.940735e-05
2.940759e-05
2.940796e-05
2.94085e-05
2.940925e-05
2.941024e-05
2.941155e-05
2.941323e-05
2.941535e-05
2.941797e-05
2.942108e-05
2.942355e-05
2.942143e-05
2.941939e-05
2.94175e-05
2.941579e-05
2.941426e-05
2.941293e-05
2.941178e-05
2.94108e-05
2.940997e-05
2.940928e-05
2.94087e-05
2.940823e-05
2.940785e-05
2.940756e-05
2.940735e-05
2.940722e-05
2.940717e-05
2.94072e-05
2.940733e-05
2.940757e-05
2.940794e-05
2.940847e-05
2.940921e-05
2.94102e-05
2.941149e-05
2.941316e-05
2.941526e-05
2.941785e-05
2.942093e-05
2.94232e-05
2.942045e-05
2.941782e-05
2.941538e-05
2.941317e-05
2.94112e-05
2.940948e-05
2.940797e-05
2.940668e-05
2.940557e-05
2.940462e-05
2.940382e-05
2.940315e-05
2.94026e-05
2.940215e-05
2.94018e-05
2.940156e-05
2.940141e-05
2.940137e-05
2.940145e-05
2.940166e-05
2.940205e-05
2.940265e-05
2.94035e-05
2.940467e-05
2.940625e-05
2.94083e-05
2.941092e-05
2.941418e-05
2.94181e-05
2.942317e-05
2.942042e-05
2.941779e-05
2.941535e-05
2.941314e-05
2.941118e-05
2.940946e-05
2.940796e-05
2.940666e-05
2.940555e-05
2.940461e-05
2.940381e-05
2.940314e-05
2.940258e-05
2.940214e-05
2.940179e-05
2.940155e-05
2.94014e-05
2.940136e-05
2.940144e-05
2.940166e-05
2.940205e-05
2.940264e-05
2.94035e-05
2.940467e-05
2.940625e-05
2.94083e-05
2.941092e-05
2.941417e-05
2.941808e-05
2.942345e-05
2.942134e-05
2.941931e-05
2.941742e-05
2.941571e-05
2.941419e-05
2.941286e-05
2.941172e-05
2.941074e-05
2.940991e-05
2.940921e-05
2.940864e-05
2.940817e-05
2.940779e-05
2.94075e-05
2.940729e-05
2.940716e-05
2.940711e-05
2.940714e-05
2.940727e-05
2.940751e-05
2.940788e-05
2.940842e-05
2.940916e-05
2.941014e-05
2.941144e-05
2.94131e-05
2.94152e-05
2.941778e-05
2.942086e-05
2.94234e-05
2.942129e-05
2.941926e-05
2.941738e-05
2.941568e-05
2.941416e-05
2.941284e-05
2.94117e-05
2.941072e-05
2.940989e-05
2.94092e-05
2.940863e-05
2.940816e-05
2.940778e-05
2.94075e-05
2.940729e-05
2.940716e-05
2.94071e-05
2.940714e-05
2.940727e-05
2.94075e-05
2.940788e-05
2.940841e-05
2.940915e-05
2.941013e-05
2.941142e-05
2.941308e-05
2.941518e-05
2.941775e-05
2.942082e-05
2.942307e-05
2.942033e-05
2.941771e-05
2.941528e-05
2.941308e-05
2.941113e-05
2.940941e-05
2.940792e-05
2.940663e-05
2.940552e-05
2.940458e-05
2.940378e-05
2.940312e-05
2.940257e-05
2.940212e-05
2.940178e-05
2.940153e-05
2.940139e-05
2.940135e-05
2.940143e-05
2.940165e-05
2.940203e-05
2.940263e-05
2.940348e-05
2.940465e-05
2.940622e-05
2.940826e-05
2.941087e-05
2.941412e-05
2.941802e-05
2.942306e-05
2.942032e-05
2.94177e-05
2.941527e-05
2.941308e-05
2.941112e-05
2.94094e-05
2.940791e-05
2.940662e-05
2.940552e-05
2.940457e-05
2.940378e-05
2.940311e-05
2.940256e-05
2.940212e-05
2.940177e-05
2.940153e-05
2.940138e-05
2.940134e-05
2.940142e-05
2.940164e-05
2.940203e-05
2.940262e-05
2.940348e-05
2.940465e-05
2.940621e-05
2.940826e-05
2.941087e-05
2.941411e-05
2.941801e-05
2.942336e-05
2.942125e-05
2.941923e-05
2.941735e-05
2.941564e-05
2.941413e-05
2.941281e-05
2.941167e-05
2.941069e-05
2.940987e-05
2.940917e-05
2.94086e-05
2.940813e-05
2.940776e-05
2.940747e-05
2.940726e-05
2.940713e-05
2.940708e-05
2.940711e-05
2.940724e-05
2.940748e-05
2.940785e-05
2.940839e-05
2.940912e-05
2.941011e-05
2.94114e-05
2.941306e-05
2.941515e-05
2.941772e-05
2.942079e-05
2.942334e-05
2.942123e-05
2.941921e-05
2.941733e-05
2.941563e-05
2.941412e-05
2.94128e-05
2.941166e-05
2.941069e-05
2.940986e-05
2.940917e-05
2.94086e-05
2.940813e-05
2.940776e-05
2.940747e-05
2.940726e-05
2.940713e-05
2.940708e-05
2.940711e-05
2.940724e-05
2.940748e-05
2.940785e-05
2.940838e-05
2.940912e-05
2.94101e-05
2.941139e-05
2.941305e-05
2.941514e-05
2.941772e-05
2.942078e-05
2.942303e-05
2.942029e-05
2.941768e-05
2.941525e-05
2.941306e-05
2.94111e-05
2.940939e-05
2.94079e-05
2.940661e-05
2.940551e-05
2.940457e-05
2.940377e-05
2.940311e-05
2.940256e-05
2.940211e-05
2.940177e-05
2.940152e-05
2.940138e-05
2.940134e-05
2.940142e-05
2.940164e-05
2.940203e-05
2.940262e-05
2.940347e-05
2.940464e-05
2.940621e-05
2.940825e-05
2.941086e-05
2.94141e-05
2.941799e-05
2.942303e-05
2.942029e-05
2.941768e-05
2.941525e-05
2.941306e-05
2.94111e-05
2.940939e-05
2.94079e-05
2.940661e-05
2.940551e-05
2.940457e-05
2.940377e-05
2.940311e-05
2.940256e-05
2.940211e-05
2.940177e-05
2.940152e-05
2.940138e-05
2.940134e-05
2.940142e-05
2.940164e-05
2.940203e-05
2.940262e-05
2.940347e-05
2.940464e-05
2.940621e-05
2.940825e-05
2.941086e-05
2.94141e-05
2.941799e-05
2.942334e-05
2.942123e-05
2.941921e-05
2.941733e-05
2.941563e-05
2.941412e-05
2.94128e-05
2.941166e-05
2.941069e-05
2.940986e-05
2.940917e-05
2.94086e-05
2.940813e-05
2.940776e-05
2.940747e-05
2.940726e-05
2.940713e-05
2.940708e-05
2.940711e-05
2.940724e-05
2.940748e-05
2.940785e-05
2.940838e-05
2.940912e-05
2.94101e-05
2.941139e-05
2.941305e-05
2.941514e-05
2.941772e-05
2.942078e-05
2.942336e-05
2.942125e-05
2.941923e-05
2.941735e-05
2.941564e-05
2.941413e-05
2.941281e-05
2.941167e-05
2.941069e-05
2.940987e-05
2.940917e-05
2.94086e-05
2.940813e-05
2.940776e-05
2.940747e-05
2.940726e-05
2.940713e-05
2.940708e-05
2.940711e-05
2.940724e-05
2.940748e-05
2.940785e-05
2.940839e-05
2.940912e-05
2.941011e-05
2.94114e-05
2.941306e-05
2.941515e-05
2.941772e-05
2.942079e-05
2.942306e-05
2.942032e-05
2.94177e-05
2.941527e-05
2.941307e-05
2.941112e-05
2.94094e-05
2.940791e-05
2.940662e-05
2.940552e-05
2.940457e-05
2.940378e-05
2.940311e-05
2.940256e-05
2.940212e-05
2.940177e-05
2.940153e-05
2.940138e-05
2.940134e-05
2.940142e-05
2.940164e-05
2.940203e-05
2.940262e-05
2.940348e-05
2.940465e-05
2.940621e-05
2.940826e-05
2.941087e-05
2.941411e-05
2.941801e-05
2.942307e-05
2.942033e-05
2.941771e-05
2.941528e-05
2.941308e-05
2.941113e-05
2.940941e-05
2.940792e-05
2.940663e-05
2.940552e-05
2.940458e-05
2.940378e-05
2.940312e-05
2.940257e-05
2.940212e-05
2.940178e-05
2.940153e-05
2.940139e-05
2.940135e-05
2.940143e-05
2.940165e-05
2.940203e-05
2.940263e-05
2.940348e-05
2.940465e-05
2.940622e-05
2.940826e-05
2.941087e-05
2.941412e-05
2.941802e-05
2.94234e-05
2.942129e-05
2.941926e-05
2.941738e-05
2.941568e-05
2.941416e-05
2.941284e-05
2.94117e-05
2.941072e-05
2.940989e-05
2.94092e-05
2.940863e-05
2.940816e-05
2.940778e-05
2.94075e-05
2.940729e-05
2.940716e-05
2.94071e-05
2.940714e-05
2.940727e-05
2.94075e-05
2.940788e-05
2.940841e-05
2.940915e-05
2.941013e-05
2.941142e-05
2.941308e-05
2.941518e-05
2.941775e-05
2.942082e-05
2.942345e-05
2.942134e-05
2.941931e-05
2.941742e-05
2.941571e-05
2.941419e-05
2.941286e-05
2.941172e-05
2.941074e-05
2.940991e-05
2.940921e-05
2.940864e-05
2.940817e-05
2.940779e-05
2.94075e-05
2.940729e-05
2.940716e-05
2.940711e-05
2.940714e-05
2.940727e-05
2.940751e-05
2.940788e-05
2.940842e-05
2.940916e-05
2.941014e-05
2.941144e-05
2.94131e-05
2.94152e-05
2.941779e-05
2.942086e-05
2.942317e-05
2.942042e-05
2.941779e-05
2.941535e-05
2.941314e-05
2.941118e-05
2.940946e-05
2.940796e-05
2.940666e-05
2.940555e-05
2.940461e-05
2.940381e-05
2.940314e-05
2.940258e-05
2.940214e-05
2.940179e-05
2.940155e-05
2.94014e-05
2.940136e-05
2.940144e-05
2.940166e-05
2.940205e-05
2.940264e-05
2.94035e-05
2.940467e-05
2.940625e-05
2.94083e-05
2.941092e-05
2.941417e-05
2.941808e-05
2.94232e-05
2.942045e-05
2.941782e-05
2.941538e-05
2.941317e-05
2.94112e-05
2.940948e-05
2.940797e-05
2.940668e-05
2.940557e-05
2.940462e-05
2.940382e-05
2.940315e-05
2.94026e-05
2.940215e-05
2.94018e-05
2.940156e-05
2.940141e-05
2.940137e-05
2.940145e-05
2.940166e-05
2.940205e-05
2.940265e-05
2.94035e-05
2.940467e-05
2.940625e-05
2.94083e-05
2.941092e-05
2.941418e-05
2.94181e-05
2.942355e-05
2.942143e-05
2.941939e-05
2.94175e-05
2.941579e-05
2.941426e-05
2.941293e-05
2.941178e-05
2.94108e-05
2.940997e-05
2.940928e-05
2.94087e-05
2.940823e-05
2.940785e-05
2.940756e-05
2.940735e-05
2.940722e-05
2.940717e-05
2.94072e-05
2.940733e-05
2.940757e-05
2.940794e-05
2.940847e-05
2.940921e-05
2.94102e-05
2.941149e-05
2.941316e-05
2.941526e-05
2.941785e-05
2.942093e-05
2.942366e-05
2.942153e-05
2.941949e-05
2.941758e-05
2.941586e-05
2.941433e-05
2.941299e-05
2.941184e-05
2.941085e-05
2.941001e-05
2.940931e-05
2.940873e-05
2.940826e-05
2.940788e-05
2.940758e-05
2.940737e-05
2.940724e-05
2.940719e-05
2.940722e-05
2.940735e-05
2.940759e-05
2.940796e-05
2.94085e-05
2.940924e-05
2.941024e-05
2.941155e-05
2.941323e-05
2.941535e-05
2.941796e-05
2.942108e-05
2.94234e-05
2.942063e-05
2.941798e-05
2.941553e-05
2.94133e-05
2.941132e-05
2.940958e-05
2.940807e-05
2.940676e-05
2.940564e-05
2.940469e-05
2.940388e-05
2.940321e-05
2.940265e-05
2.94022e-05
2.940185e-05
2.94016e-05
2.940145e-05
2.940141e-05
2.940149e-05
2.940171e-05
2.94021e-05
2.940271e-05
2.940357e-05
2.940476e-05
2.940635e-05
2.940843e-05
2.941108e-05
2.941438e-05
2.941834e-05
2.942347e-05
2.94207e-05
2.941805e-05
2.941559e-05
2.941337e-05
2.941139e-05
2.940965e-05
2.940813e-05
2.940683e-05
2.94057e-05
2.940475e-05
2.940394e-05
2.940326e-05
2.94027e-05
2.940225e-05
2.940189e-05
2.940164e-05
2.940149e-05
2.940144e-05
2.940151e-05
2.940172e-05
2.94021e-05
2.940269e-05
2.940354e-05
2.940472e-05
2.94063e-05
2.940838e-05
2.941104e-05
2.941437e-05
2.94184e-05
2.942387e-05
2.942175e-05
2.94197e-05
2.94178e-05
2.941607e-05
2.941454e-05
2.94132e-05
2.941205e-05
2.941106e-05
2.941022e-05
2.940952e-05
2.940894e-05
2.940847e-05
2.940809e-05
2.94078e-05
2.94076e-05
2.940747e-05
2.940742e-05
2.940746e-05
2.940759e-05
2.940784e-05
2.940822e-05
2.940877e-05
2.940953e-05
2.941055e-05
2.941188e-05
2.94136e-05
2.941577e-05
2.941844e-05
2.942164e-05
2.942469e-05
2.942335e-05
2.942201e-05
2.942069e-05
2.941942e-05
2.94182e-05
2.941707e-05
2.941603e-05
2.94151e-05
2.941427e-05
2.941355e-05
2.941294e-05
2.941244e-05
2.941204e-05
2.941174e-05
2.941154e-05
2.941145e-05
2.941147e-05
2.941161e-05
2.941187e-05
2.941228e-05
2.941285e-05
2.941361e-05
2.941456e-05
2.941575e-05
2.941718e-05
2.941887e-05
2.942084e-05
2.942309e-05
2.942559e-05
2.942426e-05
2.942221e-05
2.942018e-05
2.941821e-05
2.941631e-05
2.941453e-05
2.941288e-05
2.941137e-05
2.941001e-05
2.94088e-05
2.940773e-05
2.940682e-05
2.940604e-05
2.940539e-05
2.940487e-05
2.940449e-05
2.940424e-05
2.940412e-05
2.940416e-05
2.940437e-05
2.940477e-05
2.940538e-05
2.940625e-05
2.940741e-05
2.94089e-05
2.941077e-05
2.941304e-05
2.941574e-05
2.941888e-05
2.942243e-05
2.94242e-05
2.942215e-05
2.942011e-05
2.941813e-05
2.941624e-05
2.941445e-05
2.941279e-05
2.941128e-05
2.940992e-05
2.940871e-05
2.940765e-05
2.940673e-05
2.940595e-05
2.940531e-05
2.94048e-05
2.940442e-05
2.940417e-05
2.940407e-05
2.940411e-05
2.940433e-05
2.940474e-05
2.940537e-05
2.940626e-05
2.940743e-05
2.940893e-05
2.94108e-05
2.941307e-05
2.941575e-05
2.941885e-05
2.942235e-05
2.94245e-05
2.942315e-05
2.94218e-05
2.942047e-05
2.941919e-05
2.941797e-05
2.941683e-05
2.941579e-05
2.941485e-05
2.941402e-05
2.94133e-05
2.941269e-05
2.941218e-05
2.941177e-05
2.941147e-05
2.941126e-05
2.941116e-05
2.941117e-05
2.94113e-05
2.941155e-05
2.941195e-05
2.94125e-05
2.941323e-05
2.941417e-05
2.941532e-05
2.941672e-05
2.941837e-05
2.942029e-05
2.942248e-05
2.942492e-05
2.94244e-05
2.942305e-05
2.942171e-05
2.942039e-05
2.941911e-05
2.941789e-05
2.941676e-05
2.941572e-05
2.941479e-05
2.941396e-05
2.941325e-05
2.941264e-05
2.941213e-05
2.941173e-05
2.941142e-05
2.941122e-05
2.941113e-05
2.941114e-05
2.941126e-05
2.941151e-05
2.94119e-05
2.941245e-05
2.941318e-05
2.94141e-05
2.941524e-05
2.941663e-05
2.941826e-05
2.942017e-05
2.942233e-05
2.942475e-05
2.942401e-05
2.942197e-05
2.941995e-05
2.941798e-05
2.941609e-05
2.941431e-05
2.941267e-05
2.941117e-05
2.940981e-05
2.940861e-05
2.940756e-05
2.940665e-05
2.940587e-05
2.940523e-05
2.940473e-05
2.940435e-05
2.94041e-05
2.9404e-05
2.940404e-05
2.940425e-05
2.940466e-05
2.940528e-05
2.940615e-05
2.940731e-05
2.940879e-05
2.941064e-05
2.941288e-05
2.941553e-05
2.941861e-05
2.942208e-05
2.942398e-05
2.942194e-05
2.941992e-05
2.941795e-05
2.941606e-05
2.941429e-05
2.941264e-05
2.941114e-05
2.940979e-05
2.940859e-05
2.940754e-05
2.940663e-05
2.940585e-05
2.940522e-05
2.940471e-05
2.940433e-05
2.940409e-05
2.940398e-05
2.940403e-05
2.940424e-05
2.940465e-05
2.940527e-05
2.940615e-05
2.94073e-05
2.940879e-05
2.941064e-05
2.941288e-05
2.941553e-05
2.94186e-05
2.942206e-05
2.942431e-05
2.942296e-05
2.942162e-05
2.94203e-05
2.941902e-05
2.94178e-05
2.941667e-05
2.941564e-05
2.941471e-05
2.941388e-05
2.941317e-05
2.941256e-05
2.941205e-05
2.941165e-05
2.941135e-05
2.941115e-05
2.941105e-05
2.941106e-05
2.941119e-05
2.941144e-05
2.941183e-05
2.941238e-05
2.941311e-05
2.941403e-05
2.941518e-05
2.941656e-05
2.94182e-05
2.94201e-05
2.942227e-05
2.942468e-05
2.942425e-05
2.942291e-05
2.942157e-05
2.942025e-05
2.941898e-05
2.941777e-05
2.941664e-05
2.941561e-05
2.941468e-05
2.941386e-05
2.941315e-05
2.941254e-05
2.941204e-05
2.941164e-05
2.941134e-05
2.941114e-05
2.941104e-05
2.941105e-05
2.941118e-05
2.941143e-05
2.941182e-05
2.941237e-05
2.941309e-05
2.941401e-05
2.941515e-05
2.941653e-05
2.941817e-05
2.942006e-05
2.942222e-05
2.942463e-05
2.942388e-05
2.942185e-05
2.941983e-05
2.941787e-05
2.941599e-05
2.941423e-05
2.941259e-05
2.941109e-05
2.940975e-05
2.940855e-05
2.94075e-05
2.940659e-05
2.940583e-05
2.940519e-05
2.940468e-05
2.940431e-05
2.940406e-05
2.940396e-05
2.940401e-05
2.940422e-05
2.940463e-05
2.940525e-05
2.940612e-05
2.940727e-05
2.940875e-05
2.941059e-05
2.941283e-05
2.941547e-05
2.941853e-05
2.942199e-05
2.942387e-05
2.942183e-05
2.941982e-05
2.941786e-05
2.941598e-05
2.941421e-05
2.941258e-05
2.941108e-05
2.940974e-05
2.940854e-05
2.940749e-05
2.940659e-05
2.940582e-05
2.940518e-05
2.940468e-05
2.94043e-05
2.940406e-05
2.940395e-05
2.9404e-05
2.940422e-05
2.940462e-05
2.940524e-05
2.940611e-05
2.940727e-05
2.940875e-05
2.941059e-05
2.941282e-05
2.941547e-05
2.941853e-05
2.942198e-05
2.942421e-05
2.942287e-05
2.942153e-05
2.942022e-05
2.941894e-05
2.941773e-05
2.941661e-05
2.941558e-05
2.941465e-05
2.941383e-05
2.941312e-05
2.941251e-05
2.941201e-05
2.941161e-05
2.941131e-05
2.941111e-05
2.941101e-05
2.941102e-05
2.941115e-05
2.94114e-05
2.941179e-05
2.941234e-05
2.941306e-05
2.941398e-05
2.941512e-05
2.94165e-05
2.941813e-05
2.942003e-05
2.942219e-05
2.94246e-05
2.942419e-05
2.942285e-05
2.942152e-05
2.94202e-05
2.941893e-05
2.941772e-05
2.94166e-05
2.941557e-05
2.941464e-05
2.941382e-05
2.941311e-05
2.94125e-05
2.9412e-05
2.94116e-05
2.94113e-05
2.94111e-05
2.941101e-05
2.941102e-05
2.941114e-05
2.94114e-05
2.941179e-05
2.941233e-05
2.941306e-05
2.941398e-05
2.941512e-05
2.941649e-05
2.941813e-05
2.942002e-05
2.942218e-05
2.942458e-05
2.942384e-05
2.942181e-05
2.94198e-05
2.941784e-05
2.941596e-05
2.94142e-05
2.941256e-05
2.941107e-05
2.940972e-05
2.940853e-05
2.940748e-05
2.940658e-05
2.940581e-05
2.940517e-05
2.940467e-05
2.940429e-05
2.940405e-05
2.940395e-05
2.9404e-05
2.940421e-05
2.940462e-05
2.940524e-05
2.940611e-05
2.940726e-05
2.940874e-05
2.941058e-05
2.941281e-05
2.941545e-05
2.941851e-05
2.942196e-05
2.942384e-05
2.942181e-05
2.94198e-05
2.941784e-05
2.941596e-05
2.94142e-05
2.941256e-05
2.941107e-05
2.940972e-05
2.940853e-05
2.940748e-05
2.940658e-05
2.940581e-05
2.940517e-05
2.940467e-05
2.940429e-05
2.940405e-05
2.940395e-05
2.9404e-05
2.940421e-05
2.940462e-05
2.940524e-05
2.940611e-05
2.940726e-05
2.940874e-05
2.941058e-05
2.941281e-05
2.941545e-05
2.941851e-05
2.942196e-05
2.942419e-05
2.942285e-05
2.942152e-05
2.94202e-05
2.941893e-05
2.941772e-05
2.94166e-05
2.941557e-05
2.941464e-05
2.941382e-05
2.941311e-05
2.94125e-05
2.9412e-05
2.94116e-05
2.94113e-05
2.94111e-05
2.941101e-05
2.941102e-05
2.941114e-05
2.94114e-05
2.941179e-05
2.941233e-05
2.941306e-05
2.941398e-05
2.941512e-05
2.941649e-05
2.941813e-05
2.942002e-05
2.942218e-05
2.942458e-05
2.942421e-05
2.942287e-05
2.942153e-05
2.942021e-05
2.941894e-05
2.941773e-05
2.941661e-05
2.941558e-05
2.941465e-05
2.941383e-05
2.941312e-05
2.941251e-05
2.941201e-05
2.941161e-05
2.941131e-05
2.941111e-05
2.941101e-05
2.941102e-05
2.941115e-05
2.94114e-05
2.941179e-05
2.941234e-05
2.941306e-05
2.941398e-05
2.941512e-05
2.94165e-05
2.941813e-05
2.942003e-05
2.942219e-05
2.942459e-05
2.942387e-05
2.942183e-05
2.941982e-05
2.941786e-05
2.941598e-05
2.941421e-05
2.941258e-05
2.941108e-05
2.940974e-05
2.940854e-05
2.940749e-05
2.940659e-05
2.940582e-05
2.940518e-05
2.940468e-05
2.94043e-05
2.940406e-05
2.940395e-05
2.9404e-05
2.940422e-05
2.940462e-05
2.940524e-05
2.940611e-05
2.940727e-05
2.940875e-05
2.941059e-05
2.941282e-05
2.941547e-05
2.941853e-05
2.942198e-05
2.942388e-05
2.942185e-05
2.941983e-05
2.941787e-05
2.941599e-05
2.941423e-05
2.941259e-05
2.941109e-05
2.940975e-05
2.940855e-05
2.94075e-05
2.940659e-05
2.940583e-05
2.940519e-05
2.940468e-05
2.940431e-05
2.940406e-05
2.940396e-05
2.940401e-05
2.940422e-05
2.940463e-05
2.940525e-05
2.940612e-05
2.940727e-05
2.940875e-05
2.941059e-05
2.941283e-05
2.941547e-05
2.941853e-05
2.942199e-05
2.942425e-05
2.942291e-05
2.942157e-05
2.942025e-05
2.941898e-05
2.941777e-05
2.941664e-05
2.941561e-05
2.941468e-05
2.941386e-05
2.941315e-05
2.941254e-05