/*--------------------------------*- C++ -*----------------------------------*\
| =========                 |                                                 |
| \\      /  F ield         | OpenFOAM: The Open Source CFD Toolbox           |
|  \\    /   O peration     | Version:  4.0                                   |
|   \\  /    A nd           | Web:      www.OpenFOAM.org                      |
|    \\/     M anipulation  |                                                 |
\*---------------------------------------------------------------------------*/
FoamFile
{
    version     2.0;
    format      ascii;
    class       volScalarField;
    location    "120/air";
    object      diffO2air;
}
// * * * * * * * * * * * * * * * * * * * * * * * * * * * * * * * * * * * * * //

dimensions      [0 2 -1 0 0 0 0];

internalField   nonuniform List<scalar> 
39776
(
2.935833e-05
2.935842e-05
2.935867e-05
2.935894e-05
2.935925e-05
2.935959e-05
2.935994e-05
2.93603e-05
2.936066e-05
2.936102e-05
2.936139e-05
2.936177e-05
2.936214e-05
2.936253e-05
2.936292e-05
2.936332e-05
2.936372e-05
2.936414e-05
2.936456e-05
2.936499e-05
2.936542e-05
2.936587e-05
2.936633e-05
2.93668e-05
2.936729e-05
2.936778e-05
2.93683e-05
2.936884e-05
2.936945e-05
2.937013e-05
2.935844e-05
2.935853e-05
2.935878e-05
2.935905e-05
2.935935e-05
2.935968e-05
2.936002e-05
2.936036e-05
2.936071e-05
2.936106e-05
2.936142e-05
2.936178e-05
2.936214e-05
2.936251e-05
2.936288e-05
2.936326e-05
2.936365e-05
2.936404e-05
2.936443e-05
2.936483e-05
2.936524e-05
2.936565e-05
2.936608e-05
2.936651e-05
2.936694e-05
2.936739e-05
2.936784e-05
2.936832e-05
2.936885e-05
2.936948e-05
2.935837e-05
2.935846e-05
2.935871e-05
2.935898e-05
2.935928e-05
2.93596e-05
2.935993e-05
2.936026e-05
2.93606e-05
2.936094e-05
2.936128e-05
2.936162e-05
2.936197e-05
2.936232e-05
2.936267e-05
2.936302e-05
2.936338e-05
2.936374e-05
2.93641e-05
2.936447e-05
2.936484e-05
2.936521e-05
2.936558e-05
2.936595e-05
2.936633e-05
2.936671e-05
2.936709e-05
2.936749e-05
2.936792e-05
2.936854e-05
2.93582e-05
2.93583e-05
2.935855e-05
2.935883e-05
2.935913e-05
2.935946e-05
2.93598e-05
2.936015e-05
2.93605e-05
2.936086e-05
2.936122e-05
2.936158e-05
2.936196e-05
2.936233e-05
2.936272e-05
2.936311e-05
2.936351e-05
2.936391e-05
2.936433e-05
2.936476e-05
2.936519e-05
2.936564e-05
2.93661e-05
2.936658e-05
2.936707e-05
2.936757e-05
2.93681e-05
2.936865e-05
2.936926e-05
2.937005e-05
2.935811e-05
2.935822e-05
2.935848e-05
2.935877e-05
2.935909e-05
2.935944e-05
2.93598e-05
2.936016e-05
2.936054e-05
2.936091e-05
2.93613e-05
2.936169e-05
2.936209e-05
2.936249e-05
2.936291e-05
2.936333e-05
2.936377e-05
2.936421e-05
2.936466e-05
2.936513e-05
2.93656e-05
2.936609e-05
2.93666e-05
2.936711e-05
2.936765e-05
2.93682e-05
2.936876e-05
2.936936e-05
2.937e-05
2.937083e-05
2.935827e-05
2.935838e-05
2.935863e-05
2.935892e-05
2.935923e-05
2.935957e-05
2.935992e-05
2.936028e-05
2.936064e-05
2.936101e-05
2.936139e-05
2.936177e-05
2.936216e-05
2.936255e-05
2.936295e-05
2.936336e-05
2.936377e-05
2.93642e-05
2.936463e-05
2.936507e-05
2.936552e-05
2.936598e-05
2.936645e-05
2.936693e-05
2.936742e-05
2.936792e-05
2.936844e-05
2.936897e-05
2.936955e-05
2.937027e-05
2.935825e-05
2.935836e-05
2.935862e-05
2.93589e-05
2.935921e-05
2.935955e-05
2.93599e-05
2.936025e-05
2.936061e-05
2.936097e-05
2.936134e-05
2.936171e-05
2.936209e-05
2.936248e-05
2.936287e-05
2.936326e-05
2.936367e-05
2.936407e-05
2.936449e-05
2.936491e-05
2.936534e-05
2.936577e-05
2.936622e-05
2.936667e-05
2.936712e-05
2.936758e-05
2.936805e-05
2.936854e-05
2.936906e-05
2.936974e-05
2.93581e-05
2.935821e-05
2.935848e-05
2.935877e-05
2.935909e-05
2.935943e-05
2.935979e-05
2.936016e-05
2.936053e-05
2.936091e-05
2.93613e-05
2.936169e-05
2.93621e-05
2.936251e-05
2.936293e-05
2.936336e-05
2.936379e-05
2.936425e-05
2.936471e-05
2.936518e-05
2.936567e-05
2.936618e-05
2.93667e-05
2.936723e-05
2.936779e-05
2.936836e-05
2.936896e-05
2.936958e-05
2.937026e-05
2.937111e-05
2.9358e-05
2.935812e-05
2.935838e-05
2.935868e-05
2.935901e-05
2.935936e-05
2.935972e-05
2.936009e-05
2.936047e-05
2.936086e-05
2.936125e-05
2.936165e-05
2.936206e-05
2.936248e-05
2.93629e-05
2.936334e-05
2.936378e-05
2.936424e-05
2.936471e-05
2.936519e-05
2.936569e-05
2.93662e-05
2.936673e-05
2.936727e-05
2.936783e-05
2.936841e-05
2.936901e-05
2.936963e-05
2.937031e-05
2.937115e-05
2.935817e-05
2.935828e-05
2.935854e-05
2.935884e-05
2.935916e-05
2.93595e-05
2.935985e-05
2.936021e-05
2.936058e-05
2.936095e-05
2.936133e-05
2.936172e-05
2.936211e-05
2.936251e-05
2.936291e-05
2.936333e-05
2.936375e-05
2.936418e-05
2.936462e-05
2.936507e-05
2.936553e-05
2.936599e-05
2.936647e-05
2.936696e-05
2.936746e-05
2.936797e-05
2.936849e-05
2.936903e-05
2.93696e-05
2.937032e-05
2.935815e-05
2.935827e-05
2.935853e-05
2.935883e-05
2.935915e-05
2.935949e-05
2.935984e-05
2.93602e-05
2.936057e-05
2.936094e-05
2.936131e-05
2.93617e-05
2.936209e-05
2.936248e-05
2.936288e-05
2.936329e-05
2.936371e-05
2.936414e-05
2.936457e-05
2.936501e-05
2.936546e-05
2.936592e-05
2.936639e-05
2.936686e-05
2.936735e-05
2.936785e-05
2.936835e-05
2.936887e-05
2.936943e-05
2.937013e-05
2.9358e-05
2.935811e-05
2.935838e-05
2.935867e-05
2.9359e-05
2.935935e-05
2.935971e-05
2.936008e-05
2.936046e-05
2.936085e-05
2.936124e-05
2.936165e-05
2.936205e-05
2.936247e-05
2.93629e-05
2.936334e-05
2.936378e-05
2.936424e-05
2.936472e-05
2.93652e-05
2.93657e-05
2.936622e-05
2.936675e-05
2.936729e-05
2.936786e-05
2.936844e-05
2.936905e-05
2.936969e-05
2.937037e-05
2.937122e-05
2.935797e-05
2.935809e-05
2.935836e-05
2.935865e-05
2.935897e-05
2.935932e-05
2.935969e-05
2.936006e-05
2.936044e-05
2.936083e-05
2.936122e-05
2.936162e-05
2.936204e-05
2.936245e-05
2.936288e-05
2.936332e-05
2.936377e-05
2.936424e-05
2.936471e-05
2.93652e-05
2.93657e-05
2.936621e-05
2.936675e-05
2.93673e-05
2.936786e-05
2.936845e-05
2.936906e-05
2.93697e-05
2.937039e-05
2.937124e-05
2.935814e-05
2.935825e-05
2.935851e-05
2.935881e-05
2.935912e-05
2.935946e-05
2.935982e-05
2.936018e-05
2.936054e-05
2.936091e-05
2.936129e-05
2.936168e-05
2.936207e-05
2.936247e-05
2.936288e-05
2.936329e-05
2.936371e-05
2.936414e-05
2.936458e-05
2.936503e-05
2.936549e-05
2.936596e-05
2.936643e-05
2.936692e-05
2.936742e-05
2.936792e-05
2.936844e-05
2.936897e-05
2.936955e-05
2.937026e-05
2.935814e-05
2.935825e-05
2.935851e-05
2.935881e-05
2.935912e-05
2.935946e-05
2.935982e-05
2.936018e-05
2.936054e-05
2.936092e-05
2.936129e-05
2.936168e-05
2.936207e-05
2.936247e-05
2.936288e-05
2.936329e-05
2.936372e-05
2.936415e-05
2.936458e-05
2.936503e-05
2.936549e-05
2.936596e-05
2.936643e-05
2.936692e-05
2.936741e-05
2.936792e-05
2.936844e-05
2.936897e-05
2.936954e-05
2.937025e-05
2.935797e-05
2.935809e-05
2.935835e-05
2.935865e-05
2.935897e-05
2.935932e-05
2.935969e-05
2.936006e-05
2.936044e-05
2.936083e-05
2.936122e-05
2.936162e-05
2.936203e-05
2.936245e-05
2.936288e-05
2.936332e-05
2.936377e-05
2.936423e-05
2.936471e-05
2.936519e-05
2.93657e-05
2.936621e-05
2.936674e-05
2.936729e-05
2.936786e-05
2.936845e-05
2.936906e-05
2.936969e-05
2.937038e-05
2.937123e-05
2.9358e-05
2.935812e-05
2.935838e-05
2.935868e-05
2.935901e-05
2.935936e-05
2.935973e-05
2.93601e-05
2.936048e-05
2.936087e-05
2.936126e-05
2.936166e-05
2.936207e-05
2.936248e-05
2.936291e-05
2.936335e-05
2.936379e-05
2.936425e-05
2.936472e-05
2.936521e-05
2.936571e-05
2.936622e-05
2.936675e-05
2.93673e-05
2.936786e-05
2.936845e-05
2.936906e-05
2.936969e-05
2.937038e-05
2.937123e-05
2.935816e-05
2.935828e-05
2.935854e-05
2.935883e-05
2.935915e-05
2.935949e-05
2.935984e-05
2.93602e-05
2.936057e-05
2.936094e-05
2.936132e-05
2.93617e-05
2.936209e-05
2.936248e-05
2.936289e-05
2.936329e-05
2.936371e-05
2.936414e-05
2.936457e-05
2.936501e-05
2.936546e-05
2.936592e-05
2.936639e-05
2.936687e-05
2.936735e-05
2.936785e-05
2.936835e-05
2.936887e-05
2.936943e-05
2.937013e-05
2.935818e-05
2.935829e-05
2.935856e-05
2.935885e-05
2.935916e-05
2.93595e-05
2.935986e-05
2.936022e-05
2.936058e-05
2.936096e-05
2.936133e-05
2.936172e-05
2.936211e-05
2.936251e-05
2.936292e-05
2.936333e-05
2.936375e-05
2.936418e-05
2.936462e-05
2.936507e-05
2.936553e-05
2.9366e-05
2.936647e-05
2.936696e-05
2.936746e-05
2.936797e-05
2.936849e-05
2.936903e-05
2.93696e-05
2.937032e-05
2.935801e-05
2.935813e-05
2.935839e-05
2.935869e-05
2.935901e-05
2.935936e-05
2.935973e-05
2.93601e-05
2.936048e-05
2.936086e-05
2.936126e-05
2.936166e-05
2.936206e-05
2.936248e-05
2.936291e-05
2.936334e-05
2.936379e-05
2.936424e-05
2.936471e-05
2.93652e-05
2.936569e-05
2.93662e-05
2.936673e-05
2.936727e-05
2.936783e-05
2.936841e-05
2.936901e-05
2.936963e-05
2.937031e-05
2.937115e-05
2.935812e-05
2.935823e-05
2.935849e-05
2.935879e-05
2.935911e-05
2.935945e-05
2.935981e-05
2.936018e-05
2.936055e-05
2.936093e-05
2.936132e-05
2.936171e-05
2.936212e-05
2.936253e-05
2.936295e-05
2.936338e-05
2.936382e-05
2.936427e-05
2.936473e-05
2.93652e-05
2.936569e-05
2.93662e-05
2.936672e-05
2.936725e-05
2.936781e-05
2.936838e-05
2.936898e-05
2.93696e-05
2.937028e-05
2.937113e-05
2.935827e-05
2.935838e-05
2.935863e-05
2.935892e-05
2.935924e-05
2.935957e-05
2.935992e-05
2.936027e-05
2.936063e-05
2.9361e-05
2.936136e-05
2.936174e-05
2.936211e-05
2.93625e-05
2.936289e-05
2.936328e-05
2.936368e-05
2.936409e-05
2.936451e-05
2.936493e-05
2.936536e-05
2.93658e-05
2.936624e-05
2.936669e-05
2.936714e-05
2.936761e-05
2.936808e-05
2.936856e-05
2.936909e-05
2.936976e-05
2.935829e-05
2.93584e-05
2.935866e-05
2.935894e-05
2.935925e-05
2.935959e-05
2.935994e-05
2.93603e-05
2.936066e-05
2.936103e-05
2.936141e-05
2.936179e-05
2.936218e-05
2.936257e-05
2.936297e-05
2.936338e-05
2.936379e-05
2.936422e-05
2.936465e-05
2.936509e-05
2.936554e-05
2.9366e-05
2.936647e-05
2.936695e-05
2.936745e-05
2.936795e-05
2.936846e-05
2.9369e-05
2.936957e-05
2.93703e-05
2.935813e-05
2.935824e-05
2.93585e-05
2.935879e-05
2.935911e-05
2.935945e-05
2.935981e-05
2.936018e-05
2.936055e-05
2.936093e-05
2.936131e-05
2.936171e-05
2.93621e-05
2.936251e-05
2.936293e-05
2.936335e-05
2.936378e-05
2.936422e-05
2.936468e-05
2.936514e-05
2.936562e-05
2.936611e-05
2.936661e-05
2.936713e-05
2.936766e-05
2.936821e-05
2.936878e-05
2.936937e-05
2.937001e-05
2.937084e-05
2.935823e-05
2.935833e-05
2.935858e-05
2.935886e-05
2.935917e-05
2.93595e-05
2.935984e-05
2.936019e-05
2.936054e-05
2.936089e-05
2.936125e-05
2.936162e-05
2.936199e-05
2.936237e-05
2.936275e-05
2.936314e-05
2.936354e-05
2.936395e-05
2.936436e-05
2.936479e-05
2.936522e-05
2.936567e-05
2.936613e-05
2.936661e-05
2.93671e-05
2.93676e-05
2.936813e-05
2.936868e-05
2.936929e-05
2.937008e-05
2.93584e-05
2.935849e-05
2.935874e-05
2.935901e-05
2.935932e-05
2.935964e-05
2.935997e-05
2.93603e-05
2.936064e-05
2.936098e-05
2.936132e-05
2.936166e-05
2.936201e-05
2.936235e-05
2.936271e-05
2.936306e-05
2.936342e-05
2.936378e-05
2.936414e-05
2.93645e-05
2.936487e-05
2.936524e-05
2.936561e-05
2.936599e-05
2.936636e-05
2.936674e-05
2.936712e-05
2.936751e-05
2.936795e-05
2.936857e-05
2.935846e-05
2.935855e-05
2.93588e-05
2.935907e-05
2.935938e-05
2.935971e-05
2.936006e-05
2.93604e-05
2.936075e-05
2.93611e-05
2.936145e-05
2.936181e-05
2.936218e-05
2.936255e-05
2.936292e-05
2.93633e-05
2.936368e-05
2.936407e-05
2.936446e-05
2.936486e-05
2.936527e-05
2.936568e-05
2.936611e-05
2.936653e-05
2.936697e-05
2.936741e-05
2.936787e-05
2.936834e-05
2.936887e-05
2.936952e-05
2.935836e-05
2.935845e-05
2.93587e-05
2.935897e-05
2.935928e-05
2.935962e-05
2.935997e-05
2.936033e-05
2.936069e-05
2.936106e-05
2.936142e-05
2.93618e-05
2.936218e-05
2.936256e-05
2.936295e-05
2.936335e-05
2.936376e-05
2.936417e-05
2.936459e-05
2.936502e-05
2.936546e-05
2.936591e-05
2.936637e-05
2.936684e-05
2.936732e-05
2.936782e-05
2.936833e-05
2.936887e-05
2.936949e-05
2.937016e-05
2.936466e-05
2.936438e-05
2.936427e-05
2.936427e-05
2.936432e-05
2.936439e-05
2.936448e-05
2.936459e-05
2.936471e-05
2.936485e-05
2.936501e-05
2.936518e-05
2.936536e-05
2.936556e-05
2.936577e-05
2.9366e-05
2.936625e-05
2.936651e-05
2.936679e-05
2.936709e-05
2.93674e-05
2.936774e-05
2.93681e-05
2.936848e-05
2.936888e-05
2.936931e-05
2.936976e-05
2.937026e-05
2.937079e-05
2.937158e-05
2.936459e-05
2.93643e-05
2.936419e-05
2.936417e-05
2.936421e-05
2.936426e-05
2.936434e-05
2.936444e-05
2.936455e-05
2.936467e-05
2.936481e-05
2.936496e-05
2.936512e-05
2.936529e-05
2.936547e-05
2.936566e-05
2.936586e-05
2.936608e-05
2.93663e-05
2.936654e-05
2.936679e-05
2.936705e-05
2.936732e-05
2.93676e-05
2.936789e-05
2.936819e-05
2.936851e-05
2.936885e-05
2.936921e-05
2.936979e-05
2.936444e-05
2.936415e-05
2.936403e-05
2.9364e-05
2.936403e-05
2.936408e-05
2.936415e-05
2.936423e-05
2.936433e-05
2.936443e-05
2.936455e-05
2.936468e-05
2.936482e-05
2.936497e-05
2.936513e-05
2.936529e-05
2.936547e-05
2.936565e-05
2.936585e-05
2.936605e-05
2.936626e-05
2.936648e-05
2.936671e-05
2.936696e-05
2.936721e-05
2.936747e-05
2.936775e-05
2.936804e-05
2.936841e-05
2.936888e-05
2.93644e-05
2.936412e-05
2.9364e-05
2.936399e-05
2.936402e-05
2.936408e-05
2.936416e-05
2.936425e-05
2.936436e-05
2.936447e-05
2.93646e-05
2.936474e-05
2.936489e-05
2.936505e-05
2.936523e-05
2.936541e-05
2.93656e-05
2.93658e-05
2.936602e-05
2.936625e-05
2.936648e-05
2.936673e-05
2.936699e-05
2.936727e-05
2.936755e-05
2.936785e-05
2.936817e-05
2.936851e-05
2.936888e-05
2.936939e-05
2.936342e-05
2.936315e-05
2.936304e-05
2.936301e-05
2.936304e-05
2.93631e-05
2.936318e-05
2.936326e-05
2.936336e-05
2.936347e-05
2.93636e-05
2.936373e-05
2.936387e-05
2.936402e-05
2.936418e-05
2.936436e-05
2.936454e-05
2.936474e-05
2.936495e-05
2.936517e-05
2.936541e-05
2.936566e-05
2.936592e-05
2.936619e-05
2.936648e-05
2.936679e-05
2.93671e-05
2.936745e-05
2.936783e-05
2.936836e-05
2.936341e-05
2.936313e-05
2.936302e-05
2.936298e-05
2.936301e-05
2.936305e-05
2.936312e-05
2.936321e-05
2.93633e-05
2.93634e-05
2.936351e-05
2.936363e-05
2.936376e-05
2.93639e-05
2.936405e-05
2.93642e-05
2.936437e-05
2.936454e-05
2.936473e-05
2.936492e-05
2.936512e-05
2.936532e-05
2.936554e-05
2.936576e-05
2.936599e-05
2.936622e-05
2.936647e-05
2.936673e-05
2.936701e-05
2.936744e-05
2.936338e-05
2.93631e-05
2.936299e-05
2.936295e-05
2.936296e-05
2.9363e-05
2.936307e-05
2.936315e-05
2.936324e-05
2.936334e-05
2.936345e-05
2.936356e-05
2.936368e-05
2.936381e-05
2.936395e-05
2.93641e-05
2.936426e-05
2.936443e-05
2.93646e-05
2.936479e-05
2.936498e-05
2.936518e-05
2.93654e-05
2.936562e-05
2.936585e-05
2.936609e-05
2.936635e-05
2.936662e-05
2.936694e-05
2.936741e-05
2.936338e-05
2.936311e-05
2.9363e-05
2.936297e-05
2.9363e-05
2.936306e-05
2.936314e-05
2.936322e-05
2.936331e-05
2.936341e-05
2.936352e-05
2.936365e-05
2.936378e-05
2.936393e-05
2.936408e-05
2.936425e-05
2.936443e-05
2.936461e-05
2.936481e-05
2.936502e-05
2.936524e-05
2.936547e-05
2.936572e-05
2.936597e-05
2.936624e-05
2.936652e-05
2.936682e-05
2.936713e-05
2.936748e-05
2.936796e-05
2.936301e-05
2.936275e-05
2.936264e-05
2.936261e-05
2.936262e-05
2.936267e-05
2.936273e-05
2.936281e-05
2.93629e-05
2.936299e-05
2.93631e-05
2.936322e-05
2.936335e-05
2.936349e-05
2.936364e-05
2.93638e-05
2.936397e-05
2.936415e-05
2.936435e-05
2.936455e-05
2.936477e-05
2.936499e-05
2.936523e-05
2.936549e-05
2.936575e-05
2.936604e-05
2.936633e-05
2.936665e-05
2.9367e-05
2.936748e-05
2.936297e-05
2.93627e-05
2.936259e-05
2.936254e-05
2.936255e-05
2.936259e-05
2.936264e-05
2.936271e-05
2.93628e-05
2.936289e-05
2.936299e-05
2.93631e-05
2.936322e-05
2.936334e-05
2.936348e-05
2.936362e-05
2.936377e-05
2.936393e-05
2.93641e-05
2.936427e-05
2.936446e-05
2.936464e-05
2.936484e-05
2.936504e-05
2.936525e-05
2.936547e-05
2.936569e-05
2.936593e-05
2.936619e-05
2.93666e-05
2.936297e-05
2.93627e-05
2.936258e-05
2.936254e-05
2.936254e-05
2.936258e-05
2.936263e-05
2.93627e-05
2.936278e-05
2.936287e-05
2.936296e-05
2.936307e-05
2.936318e-05
2.936331e-05
2.936344e-05
2.936358e-05
2.936373e-05
2.936389e-05
2.936405e-05
2.936422e-05
2.93644e-05
2.936459e-05
2.936479e-05
2.936499e-05
2.93652e-05
2.936542e-05
2.936564e-05
2.936588e-05
2.936616e-05
2.936659e-05
2.936301e-05
2.936275e-05
2.936265e-05
2.936261e-05
2.936263e-05
2.936268e-05
2.936274e-05
2.936281e-05
2.936289e-05
2.936298e-05
2.936308e-05
2.93632e-05
2.936332e-05
2.936346e-05
2.936361e-05
2.936376e-05
2.936393e-05
2.936411e-05
2.93643e-05
2.936449e-05
2.93647e-05
2.936493e-05
2.936516e-05
2.936541e-05
2.936567e-05
2.936594e-05
2.936623e-05
2.936654e-05
2.936687e-05
2.936734e-05
2.936289e-05
2.936262e-05
2.936252e-05
2.936249e-05
2.936251e-05
2.936255e-05
2.936261e-05
2.936267e-05
2.936275e-05
2.936284e-05
2.936295e-05
2.936307e-05
2.93632e-05
2.936333e-05
2.936347e-05
2.936363e-05
2.936379e-05
2.936397e-05
2.936415e-05
2.936435e-05
2.936456e-05
2.936478e-05
2.936501e-05
2.936526e-05
2.936552e-05
2.936579e-05
2.936607e-05
2.936638e-05
2.936672e-05
2.936719e-05
2.936283e-05
2.936256e-05
2.936245e-05
2.93624e-05
2.936241e-05
2.936245e-05
2.936251e-05
2.936258e-05
2.936267e-05
2.936276e-05
2.936285e-05
2.936296e-05
2.936307e-05
2.936319e-05
2.936332e-05
2.936346e-05
2.93636e-05
2.936375e-05
2.936392e-05
2.936408e-05
2.936426e-05
2.936444e-05
2.936463e-05
2.936483e-05
2.936503e-05
2.936524e-05
2.936546e-05
2.936569e-05
2.936595e-05
2.936637e-05
2.936284e-05
2.936257e-05
2.936245e-05
2.936241e-05
2.936242e-05
2.936246e-05
2.936251e-05
2.936258e-05
2.936266e-05
2.936275e-05
2.936285e-05
2.936295e-05
2.936306e-05
2.936318e-05
2.936331e-05
2.936345e-05
2.93636e-05
2.936375e-05
2.936391e-05
2.936408e-05
2.936426e-05
2.936445e-05
2.936464e-05
2.936484e-05
2.936504e-05
2.936525e-05
2.936547e-05
2.93657e-05
2.936596e-05
2.936638e-05
2.936289e-05
2.936262e-05
2.936252e-05
2.936249e-05
2.936251e-05
2.936255e-05
2.936261e-05
2.936268e-05
2.936276e-05
2.936285e-05
2.936296e-05
2.936307e-05
2.93632e-05
2.936333e-05
2.936348e-05
2.936363e-05
2.93638e-05
2.936397e-05
2.936416e-05
2.936436e-05
2.936457e-05
2.936479e-05
2.936502e-05
2.936527e-05
2.936553e-05
2.93658e-05
2.936609e-05
2.936639e-05
2.936673e-05
2.93672e-05
2.936303e-05
2.936277e-05
2.936267e-05
2.936263e-05
2.936264e-05
2.936269e-05
2.936275e-05
2.936282e-05
2.93629e-05
2.936299e-05
2.936309e-05
2.936321e-05
2.936334e-05
2.936347e-05
2.936362e-05
2.936378e-05
2.936395e-05
2.936412e-05
2.936431e-05
2.936451e-05
2.936472e-05
2.936494e-05
2.936517e-05
2.936542e-05
2.936568e-05
2.936595e-05
2.936624e-05
2.936655e-05
2.936688e-05
2.936735e-05
2.936299e-05
2.936272e-05
2.936261e-05
2.936256e-05
2.936257e-05
2.93626e-05
2.936266e-05
2.936272e-05
2.93628e-05
2.936288e-05
2.936298e-05
2.936309e-05
2.936322e-05
2.936334e-05
2.936348e-05
2.936362e-05
2.936377e-05
2.936392e-05
2.936408e-05
2.936425e-05
2.936443e-05
2.936461e-05
2.936481e-05
2.936501e-05
2.936522e-05
2.936543e-05
2.936566e-05
2.93659e-05
2.936618e-05
2.936661e-05
2.936298e-05
2.936271e-05
2.93626e-05
2.936255e-05
2.936256e-05
2.93626e-05
2.936267e-05
2.936274e-05
2.936283e-05
2.936292e-05
2.936303e-05
2.936314e-05
2.936325e-05
2.936338e-05
2.936351e-05
2.936365e-05
2.93638e-05
2.936396e-05
2.936412e-05
2.93643e-05
2.936448e-05
2.936467e-05
2.936487e-05
2.936507e-05
2.936528e-05
2.93655e-05
2.936572e-05
2.936596e-05
2.936622e-05
2.936664e-05
2.936303e-05
2.936276e-05
2.936265e-05
2.936262e-05
2.936264e-05
2.936269e-05
2.936275e-05
2.936283e-05
2.936291e-05
2.936301e-05
2.936311e-05
2.936323e-05
2.936336e-05
2.93635e-05
2.936366e-05
2.936382e-05
2.936399e-05
2.936417e-05
2.936436e-05
2.936457e-05
2.936478e-05
2.936501e-05
2.936525e-05
2.936551e-05
2.936577e-05
2.936606e-05
2.936635e-05
2.936667e-05
2.936701e-05
2.93675e-05
2.936338e-05
2.936311e-05
2.936301e-05
2.936298e-05
2.9363e-05
2.936306e-05
2.936314e-05
2.936322e-05
2.936332e-05
2.936342e-05
2.936353e-05
2.936365e-05
2.936378e-05
2.936392e-05
2.936408e-05
2.936425e-05
2.936443e-05
2.936461e-05
2.936481e-05
2.936502e-05
2.936524e-05
2.936548e-05
2.936572e-05
2.936598e-05
2.936625e-05
2.936653e-05
2.936683e-05
2.936715e-05
2.936749e-05
2.936797e-05
2.936338e-05
2.93631e-05
2.936299e-05
2.936295e-05
2.936296e-05
2.9363e-05
2.936306e-05
2.936314e-05
2.936322e-05
2.936332e-05
2.936343e-05
2.936355e-05
2.936367e-05
2.936381e-05
2.936396e-05
2.936411e-05
2.936427e-05
2.936443e-05
2.936461e-05
2.93648e-05
2.936499e-05
2.936519e-05
2.936541e-05
2.936563e-05
2.936586e-05
2.93661e-05
2.936636e-05
2.936663e-05
2.936695e-05
2.936742e-05
2.936342e-05
2.936315e-05
2.936303e-05
2.9363e-05
2.936302e-05
2.936306e-05
2.936313e-05
2.936321e-05
2.936331e-05
2.936341e-05
2.936352e-05
2.936364e-05
2.936377e-05
2.936391e-05
2.936405e-05
2.936421e-05
2.936438e-05
2.936455e-05
2.936473e-05
2.936492e-05
2.936512e-05
2.936533e-05
2.936554e-05
2.936577e-05
2.9366e-05
2.936623e-05
2.936648e-05
2.936674e-05
2.936702e-05
2.936745e-05
2.936344e-05
2.936316e-05
2.936306e-05
2.936303e-05
2.936306e-05
2.936312e-05
2.93632e-05
2.936328e-05
2.936338e-05
2.936349e-05
2.93636e-05
2.936373e-05
2.936388e-05
2.936403e-05
2.93642e-05
2.936437e-05
2.936456e-05
2.936475e-05
2.936496e-05
2.936519e-05
2.936542e-05
2.936567e-05
2.936593e-05
2.936621e-05
2.936649e-05
2.93668e-05
2.936712e-05
2.936747e-05
2.936785e-05
2.936837e-05
2.936441e-05
2.936413e-05
2.936402e-05
2.9364e-05
2.936403e-05
2.936409e-05
2.936417e-05
2.936427e-05
2.936437e-05
2.936449e-05
2.936462e-05
2.936476e-05
2.936491e-05
2.936507e-05
2.936524e-05
2.936542e-05
2.936561e-05
2.936582e-05
2.936604e-05
2.936626e-05
2.93665e-05
2.936675e-05
2.936702e-05
2.936729e-05
2.936758e-05
2.936788e-05
2.936819e-05
2.936853e-05
2.936891e-05
2.936942e-05
2.936445e-05
2.936416e-05
2.936405e-05
2.936401e-05
2.936403e-05
2.936408e-05
2.936416e-05
2.936425e-05
2.936434e-05
2.936445e-05
2.936457e-05
2.93647e-05
2.936484e-05
2.936499e-05
2.936515e-05
2.936532e-05
2.936549e-05
2.936568e-05
2.936587e-05
2.936607e-05
2.936628e-05
2.936651e-05
2.936674e-05
2.936698e-05
2.936724e-05
2.93675e-05
2.936778e-05
2.936808e-05
2.936844e-05
2.936891e-05
2.936461e-05
2.936432e-05
2.936421e-05
2.936419e-05
2.936422e-05
2.936428e-05
2.936437e-05
2.936447e-05
2.936458e-05
2.93647e-05
2.936484e-05
2.936498e-05
2.936514e-05
2.936531e-05
2.936549e-05
2.936569e-05
2.936589e-05
2.93661e-05
2.936633e-05
2.936656e-05
2.936681e-05
2.936707e-05
2.936734e-05
2.936762e-05
2.936792e-05
2.936822e-05
2.936854e-05
2.936888e-05
2.936924e-05
2.936982e-05
2.936469e-05
2.93644e-05
2.936429e-05
2.936429e-05
2.936435e-05
2.936441e-05
2.93645e-05
2.936461e-05
2.936474e-05
2.936488e-05
2.936503e-05
2.93652e-05
2.936539e-05
2.936558e-05
2.93658e-05
2.936603e-05
2.936627e-05
2.936654e-05
2.936682e-05
2.936711e-05
2.936743e-05
2.936777e-05
2.936813e-05
2.936851e-05
2.936891e-05
2.936934e-05
2.936979e-05
2.937028e-05
2.937082e-05
2.937161e-05
2.93594e-05
2.935908e-05
2.935887e-05
2.935872e-05
2.935859e-05
2.935846e-05
2.935835e-05
2.935824e-05
2.935815e-05
2.935806e-05
2.935798e-05
2.93579e-05
2.935782e-05
2.935775e-05
2.935768e-05
2.935761e-05
2.935755e-05
2.935749e-05
2.935743e-05
2.935737e-05
2.935732e-05
2.935728e-05
2.935724e-05
2.93572e-05
2.935717e-05
2.935716e-05
2.935714e-05
2.935715e-05
2.935717e-05
2.935727e-05
2.93594e-05
2.935908e-05
2.935886e-05
2.93587e-05
2.935856e-05
2.935842e-05
2.935829e-05
2.935816e-05
2.935805e-05
2.935795e-05
2.935784e-05
2.935774e-05
2.935764e-05
2.935755e-05
2.935745e-05
2.935735e-05
2.935725e-05
2.935715e-05
2.935705e-05
2.935695e-05
2.935685e-05
2.935674e-05
2.935664e-05
2.935654e-05
2.935644e-05
2.935633e-05
2.935623e-05
2.935613e-05
2.935606e-05
2.935605e-05
2.93593e-05
2.935898e-05
2.935876e-05
2.93586e-05
2.935844e-05
2.935829e-05
2.935813e-05
2.935799e-05
2.935786e-05
2.935774e-05
2.935762e-05
2.93575e-05
2.935738e-05
2.935726e-05
2.935714e-05
2.935701e-05
2.935689e-05
2.935676e-05
2.935663e-05
2.935649e-05
2.935635e-05
2.935621e-05
2.935606e-05
2.935591e-05
2.935575e-05
2.935558e-05
2.935541e-05
2.935524e-05
2.935507e-05
2.935499e-05
2.93592e-05
2.935889e-05
2.935867e-05
2.935851e-05
2.935835e-05
2.935819e-05
2.935805e-05
2.935791e-05
2.935777e-05
2.935764e-05
2.935752e-05
2.935739e-05
2.935726e-05
2.935713e-05
2.9357e-05
2.935687e-05
2.935673e-05
2.935659e-05
2.935645e-05
2.93563e-05
2.935615e-05
2.9356e-05
2.935584e-05
2.935568e-05
2.935551e-05
2.935533e-05
2.935515e-05
2.935497e-05
2.935478e-05
2.935465e-05
2.935752e-05
2.935721e-05
2.935699e-05
2.935682e-05
2.935665e-05
2.935648e-05
2.935631e-05
2.935616e-05
2.9356e-05
2.935586e-05
2.935571e-05
2.935557e-05
2.935542e-05
2.935528e-05
2.935513e-05
2.935499e-05
2.935484e-05
2.935468e-05
2.935453e-05
2.935437e-05
2.935422e-05
2.935406e-05
2.93539e-05
2.935373e-05
2.935357e-05
2.93534e-05
2.935323e-05
2.935307e-05
2.935291e-05
2.935278e-05
2.935754e-05
2.935723e-05
2.9357e-05
2.935683e-05
2.935666e-05
2.935648e-05
2.935631e-05
2.935613e-05
2.935597e-05
2.935582e-05
2.935567e-05
2.935552e-05
2.935537e-05
2.935521e-05
2.935505e-05
2.935489e-05
2.935472e-05
2.935455e-05
2.935437e-05
2.935419e-05
2.935401e-05
2.935382e-05
2.935362e-05
2.935342e-05
2.935322e-05
2.9353e-05
2.935279e-05
2.935257e-05
2.935235e-05
2.935215e-05
2.935749e-05
2.935718e-05
2.935696e-05
2.935678e-05
2.935661e-05
2.935643e-05
2.935626e-05
2.935609e-05
2.935592e-05
2.935576e-05
2.93556e-05
2.935545e-05
2.935529e-05
2.935513e-05
2.935497e-05
2.93548e-05
2.935463e-05
2.935446e-05
2.935428e-05
2.935409e-05
2.935391e-05
2.935372e-05
2.935352e-05
2.935331e-05
2.93531e-05
2.935289e-05
2.935267e-05
2.935244e-05
2.93522e-05
2.935199e-05
2.935742e-05
2.935712e-05
2.93569e-05
2.935673e-05
2.935655e-05
2.935637e-05
2.935619e-05
2.935602e-05
2.935586e-05
2.93557e-05
2.935554e-05
2.935538e-05
2.935521e-05
2.935505e-05
2.935488e-05
2.93547e-05
2.935453e-05
2.935434e-05
2.935416e-05
2.935397e-05
2.935377e-05
2.935356e-05
2.935335e-05
2.935314e-05
2.935292e-05
2.935269e-05
2.935245e-05
2.935221e-05
2.935197e-05
2.935177e-05
2.935673e-05
2.935642e-05
2.93562e-05
2.935603e-05
2.935586e-05
2.935568e-05
2.935551e-05
2.935535e-05
2.935519e-05
2.935504e-05
2.935488e-05
2.935472e-05
2.935456e-05
2.93544e-05
2.935423e-05
2.935406e-05
2.935389e-05
2.935371e-05
2.935353e-05
2.935334e-05
2.935315e-05
2.935296e-05
2.935276e-05
2.935255e-05
2.935234e-05
2.935212e-05
2.93519e-05
2.935168e-05
2.935146e-05
2.935127e-05
2.935678e-05
2.935647e-05
2.935625e-05
2.935607e-05
2.93559e-05
2.935572e-05
2.935555e-05
2.935539e-05
2.935523e-05
2.935507e-05
2.935491e-05
2.935475e-05
2.935458e-05
2.935441e-05
2.935424e-05
2.935406e-05
2.935389e-05
2.93537e-05
2.935351e-05
2.935332e-05
2.935312e-05
2.935291e-05
2.93527e-05
2.935248e-05
2.935226e-05
2.935203e-05
2.935179e-05
2.935155e-05
2.935131e-05
2.935108e-05
2.935678e-05
2.935647e-05
2.935624e-05
2.935606e-05
2.935589e-05
2.935571e-05
2.935554e-05
2.935538e-05
2.935521e-05
2.935506e-05
2.93549e-05
2.935473e-05
2.935457e-05
2.93544e-05
2.935423e-05
2.935405e-05
2.935387e-05
2.935369e-05
2.93535e-05
2.93533e-05
2.93531e-05
2.935289e-05
2.935268e-05
2.935246e-05
2.935223e-05
2.9352e-05
2.935176e-05
2.935152e-05
2.935127e-05
2.935104e-05
2.935671e-05
2.935641e-05
2.935619e-05
2.935601e-05
2.935584e-05
2.935566e-05
2.935549e-05
2.935532e-05
2.935516e-05
2.9355e-05
2.935484e-05
2.935468e-05
2.935451e-05
2.935434e-05
2.935417e-05
2.935399e-05
2.935381e-05
2.935363e-05
2.935344e-05
2.935325e-05
2.935305e-05
2.935284e-05
2.935263e-05
2.935241e-05
2.935219e-05
2.935196e-05
2.935172e-05
2.935148e-05
2.935124e-05
2.935104e-05
2.935654e-05
2.935624e-05
2.935602e-05
2.935584e-05
2.935567e-05
2.935549e-05
2.935532e-05
2.935516e-05
2.935499e-05
2.935483e-05
2.935467e-05
2.935451e-05
2.935434e-05
2.935417e-05
2.9354e-05
2.935383e-05
2.935365e-05
2.935346e-05
2.935327e-05
2.935308e-05
2.935288e-05
2.935268e-05
2.935246e-05
2.935225e-05
2.935202e-05
2.93518e-05
2.935156e-05
2.935132e-05
2.935109e-05
2.935089e-05
2.935662e-05
2.935631e-05
2.935609e-05
2.935591e-05
2.935574e-05
2.935556e-05
2.935538e-05
2.935521e-05
2.935504e-05
2.935488e-05
2.935472e-05
2.935455e-05
2.935439e-05
2.935421e-05
2.935404e-05
2.935386e-05
2.935368e-05
2.935349e-05
2.93533e-05
2.93531e-05
2.93529e-05
2.935269e-05
2.935248e-05
2.935225e-05
2.935203e-05
2.935179e-05
2.935155e-05
2.935131e-05
2.935106e-05
2.935082e-05
2.935661e-05
2.93563e-05
2.935608e-05
2.93559e-05
2.935573e-05
2.935555e-05
2.935538e-05
2.935521e-05
2.935505e-05
2.935489e-05
2.935472e-05
2.935456e-05
2.93544e-05
2.935423e-05
2.935405e-05
2.935387e-05
2.935369e-05
2.93535e-05
2.935331e-05
2.935311e-05
2.93529e-05
2.935269e-05
2.935248e-05
2.935225e-05
2.935202e-05
2.935179e-05
2.935155e-05
2.93513e-05
2.935105e-05
2.935081e-05
2.935655e-05
2.935625e-05
2.935603e-05
2.935585e-05
2.935568e-05
2.93555e-05
2.935533e-05
2.935516e-05
2.9355e-05
2.935484e-05
2.935468e-05
2.935451e-05
2.935435e-05
2.935418e-05
2.935401e-05
2.935383e-05
2.935365e-05
2.935347e-05
2.935328e-05
2.935308e-05
2.935288e-05
2.935268e-05
2.935246e-05
2.935225e-05
2.935202e-05
2.935179e-05
2.935156e-05
2.935132e-05
2.935109e-05
2.935089e-05
2.935671e-05
2.935641e-05
2.935619e-05
2.935601e-05
2.935584e-05
2.935566e-05
2.935549e-05
2.935533e-05
2.935517e-05
2.935501e-05
2.935485e-05
2.935468e-05
2.935452e-05
2.935435e-05
2.935418e-05
2.9354e-05
2.935383e-05
2.935364e-05
2.935346e-05
2.935326e-05
2.935306e-05
2.935286e-05
2.935265e-05
2.935243e-05
2.935221e-05
2.935198e-05
2.935174e-05
2.93515e-05
2.935126e-05
2.935106e-05
2.935679e-05
2.935648e-05
2.935626e-05
2.935608e-05
2.935591e-05
2.935573e-05
2.935556e-05
2.93554e-05
2.935523e-05
2.935507e-05
2.935491e-05
2.935475e-05
2.935458e-05
2.935441e-05
2.935423e-05
2.935405e-05
2.935387e-05
2.935369e-05
2.93535e-05
2.935331e-05
2.935311e-05
2.935291e-05
2.935269e-05
2.935248e-05
2.935225e-05
2.935202e-05
2.935178e-05
2.935154e-05
2.935129e-05
2.935106e-05
2.935683e-05
2.935652e-05
2.93563e-05
2.935612e-05
2.935595e-05
2.935577e-05
2.935559e-05
2.935542e-05
2.935526e-05
2.935509e-05
2.935493e-05
2.935476e-05
2.93546e-05
2.935443e-05
2.935426e-05
2.935409e-05
2.935391e-05
2.935372e-05
2.935353e-05
2.935334e-05
2.935313e-05
2.935293e-05
2.935272e-05
2.93525e-05
2.935227e-05
2.935204e-05
2.93518e-05
2.935156e-05
2.935132e-05
2.935109e-05
2.935676e-05
2.935646e-05
2.935624e-05
2.935606e-05
2.935589e-05
2.935571e-05
2.935554e-05
2.935538e-05
2.935522e-05
2.935507e-05