/*--------------------------------*- C++ -*----------------------------------*\
| =========                 |                                                 |
| \\      /  F ield         | OpenFOAM: The Open Source CFD Toolbox           |
|  \\    /   O peration     | Version:  4.0                                   |
|   \\  /    A nd           | Web:      www.OpenFOAM.org                      |
|    \\/     M anipulation  |                                                 |
\*---------------------------------------------------------------------------*/
FoamFile
{
    version     2.0;
    format      ascii;
    class       volScalarField;
    location    "120/air";
    object      p;
}
// * * * * * * * * * * * * * * * * * * * * * * * * * * * * * * * * * * * * * //

dimensions      [1 -1 -2 0 0 0 0];

internalField   nonuniform List<scalar> 
39776
(
101464.2
101463.1
101462
101460.9
101459.7
101458.5
101457.3
101456.1
101454.8
101453.6
101452.3
101451
101449.7
101448.3
101447
101445.6
101444.2
101442.8
101441.3
101439.9
101438.3
101436.8
101435.2
101433.6
101431.9
101430.2
101428.4
101426.6
101424.7
101423.4
101463.8
101462.7
101461.5
101460.5
101459.4
101458.2
101457
101455.8
101454.6
101453.4
101452.1
101450.9
101449.6
101448.4
101447.1
101445.8
101444.5
101443.1
101441.7
101440.4
101438.9
101437.5
101436.1
101434.6
101433.1
101431.5
101430
101428.4
101426.7
101425.4
101464
101462.9
101461.8
101460.7
101459.6
101458.5
101457.3
101456.2
101455
101453.8
101452.6
101451.4
101450.2
101449
101447.8
101446.6
101445.4
101444.1
101442.9
101441.6
101440.3
101439.1
101437.8
101436.5
101435.2
101433.9
101432.6
101431.3
101430
101428.8
101464.6
101463.5
101462.4
101461.3
101460.1
101459
101457.8
101456.6
101455.3
101454.1
101452.9
101451.6
101450.3
101449
101447.7
101446.3
101445
101443.6
101442.1
101440.6
101439.1
101437.6
101436
101434.4
101432.7
101430.9
101429.1
101427.2
101425.3
101423.3
101464.9
101463.8
101462.6
101461.5
101460.3
101459
101457.8
101456.5
101455.2
101453.9
101452.6
101451.2
101449.9
101448.5
101447
101445.6
101444.1
101442.5
101441
101439.4
101437.7
101436
101434.3
101432.5
101430.7
101428.8
101426.8
101424.8
101422.7
101420.6
101464.3
101463.2
101462
101460.9
101459.8
101458.6
101457.3
101456.1
101454.8
101453.6
101452.3
101450.9
101449.6
101448.2
101446.9
101445.5
101444
101442.6
101441.1
101439.5
101438
101436.4
101434.8
101433.1
101431.4
101429.7
101427.9
101426.1
101424.2
101422.4
101464.3
101463.3
101462.1
101461
101459.8
101458.6
101457.4
101456.2
101455
101453.7
101452.4
101451.1
101449.8
101448.5
101447.1
101445.8
101444.4
101443
101441.5
101440.1
101438.6
101437.1
101435.6
101434
101432.4
101430.9
101429.2
101427.6
101425.9
101424.3
101464.9
101463.8
101462.6
101461.5
101460.3
101459.1
101457.8
101456.5
101455.2
101453.9
101452.6
101451.2
101449.8
101448.4
101447
101445.5
101444
101442.4
101440.8
101439.2
101437.5
101435.7
101433.9
101432.1
101430.2
101428.2
101426.1
101424
101421.8
101419.5
101465.2
101464.1
101462.9
101461.8
101460.6
101459.3
101458
101456.8
101455.4
101454.1
101452.8
101451.4
101450
101448.5
101447
101445.5
101444
101442.4
101440.8
101439.1
101437.4
101435.7
101433.8
101432
101430
101428
101426
101423.8
101421.6
101419.3
101464.6
101463.5
101462.3
101461.2
101460
101458.8
101457.6
101456.3
101455
101453.8
101452.5
101451.1
101449.8
101448.4
101447
101445.6
101444.1
101442.6
101441.1
101439.5
101438
101436.3
101434.7
101433
101431.3
101429.5
101427.7
101425.9
101424
101422.1
101464.7
101463.6
101462.4
101461.2
101460.1
101458.8
101457.6
101456.4
101455.1
101453.8
101452.5
101451.2
101449.8
101448.5
101447.1
101445.7
101444.2
101442.8
101441.3
101439.7
101438.2
101436.6
101435
101433.3
101431.7
101429.9
101428.2
101426.4
101424.6
101422.8
101465.2
101464.1
101462.9
101461.8
101460.6
101459.4
101458.1
101456.8
101455.5
101454.1
101452.8
101451.4
101450
101448.5
101447.1
101445.5
101444
101442.4
101440.8
101439.1
101437.4
101435.6
101433.8
101431.9
101429.9
101427.9
101425.8
101423.6
101421.4
101419.1
101465.3
101464.2
101463
101461.9
101460.7
101459.4
101458.2
101456.9
101455.5
101454.2
101452.9
101451.5
101450
101448.6
101447.1
101445.6
101444
101442.4
101440.8
101439.1
101437.4
101435.6
101433.8
101431.9
101429.9
101427.9
101425.8
101423.6
101421.3
101419
101464.7
101463.6
101462.4
101461.3
101460.1
101458.9
101457.7
101456.4
101455.2
101453.9
101452.6
101451.3
101449.9
101448.5
101447.1
101445.7
101444.2
101442.7
101441.2
101439.7
101438.1
101436.5
101434.8
101433.1
101431.4
101429.7
101427.9
101426.1
101424.2
101422.4
101464.7
101463.6
101462.4
101461.3
101460.2
101458.9
101457.7
101456.4
101455.2
101453.9
101452.6
101451.2
101449.9
101448.5
101447.1
101445.7
101444.2
101442.7
101441.2
101439.7
101438.1
101436.5
101434.8
101433.1
101431.4
101429.7
101427.9
101426.1
101424.2
101422.4
101465.3
101464.2
101463
101461.9
101460.7
101459.5
101458.2
101456.9
101455.6
101454.2
101452.9
101451.5
101450.1
101448.6
101447.1
101445.6
101444
101442.5
101440.8
101439.1
101437.4
101435.6
101433.8
101431.9
101429.9
101427.9
101425.8
101423.6
101421.4
101419
101465.2
101464.1
101462.9
101461.8
101460.6
101459.3
101458
101456.7
101455.4
101454.1
101452.7
101451.3
101449.9
101448.5
101447
101445.5
101444
101442.4
101440.8
101439.1
101437.4
101435.6
101433.7
101431.9
101429.9
101427.9
101425.8
101423.6
101421.4
101419
101464.6
101463.5
101462.4
101461.2
101460.1
101458.8
101457.6
101456.3
101455.1
101453.8
101452.5
101451.2
101449.8
101448.5
101447.1
101445.7
101444.2
101442.8
101441.3
101439.7
101438.2
101436.6
101435
101433.3
101431.7
101429.9
101428.2
101426.4
101424.6
101422.8
101464.6
101463.5
101462.3
101461.2
101460
101458.8
101457.6
101456.3
101455
101453.8
101452.4
101451.1
101449.8
101448.4
101447
101445.5
101444.1
101442.6
101441.1
101439.5
101438
101436.3
101434.7
101433
101431.3
101429.5
101427.7
101425.9
101424
101422.1
101465.2
101464.1
101462.9
101461.7
101460.6
101459.3
101458
101456.7
101455.4
101454.1
101452.7
101451.4
101449.9
101448.5
101447
101445.5
101444
101442.4
101440.8
101439.1
101437.4
101435.6
101433.8
101432
101430
101428
101426
101423.8
101421.6
101419.3
101464.8
101463.7
101462.5
101461.4
101460.2
101459
101457.8
101456.5
101455.2
101453.9
101452.5
101451.2
101449.8
101448.3
101446.9
101445.4
101443.9
101442.3
101440.7
101439.1
101437.4
101435.7
101433.9
101432
101430.1
101428.1
101426.1
101423.9
101421.7
101419.4
101464.3
101463.2
101462
101460.9
101459.8
101458.6
101457.3
101456.1
101454.9
101453.6
101452.3
101451.1
101449.7
101448.4
101447.1
101445.7
101444.3
101442.9
101441.5
101440
101438.5
101437
101435.5
101433.9
101432.4
101430.8
101429.2
101427.5
101425.9
101424.2
101464.2
101463.1
101462
101460.8
101459.7
101458.5
101457.3
101456
101454.8
101453.5
101452.2
101450.9
101449.5
101448.2
101446.8
101445.4
101443.9
101442.5
101441
101439.5
101437.9
101436.3
101434.7
101433
101431.3
101429.6
101427.8
101426
101424.1
101422.3
101464.8
101463.7
101462.5
101461.4
101460.2
101459
101457.7
101456.5
101455.2
101453.9
101452.5
101451.2
101449.8
101448.4
101447
101445.5
101444
101442.5
101440.9
101439.3
101437.7
101436
101434.2
101432.5
101430.6
101428.7
101426.8
101424.7
101422.7
101420.5
101464.5
101463.4
101462.2
101461.1
101460
101458.8
101457.6
101456.4
101455.2
101454
101452.7
101451.5
101450.2
101448.9
101447.6
101446.2
101444.8
101443.4
101442
101440.5
101439
101437.5
101435.9
101434.3
101432.6
101430.8
101429
101427.1
101425.2
101423.2
101463.9
101462.8
101461.7
101460.6
101459.5
101458.3
101457.2
101456
101454.8
101453.7
101452.5
101451.3
101450.1
101448.9
101447.7
101446.5
101445.2
101444
101442.8
101441.5
101440.2
101438.9
101437.7
101436.4
101435.1
101433.8
101432.5
101431.2
101429.9
101428.7
101463.7
101462.6
101461.5
101460.4
101459.2
101458.1
101456.9
101455.7
101454.5
101453.3
101452
101450.8
101449.5
101448.3
101447
101445.7
101444.3
101443
101441.6
101440.2
101438.8
101437.4
101436
101434.5
101433
101431.4
101429.9
101428.3
101426.6
101425.3
101464.1
101463
101461.9
101460.8
101459.6
101458.4
101457.2
101455.9
101454.7
101453.4
101452.2
101450.9
101449.6
101448.2
101446.9
101445.5
101444.1
101442.7
101441.2
101439.7
101438.2
101436.7
101435.1
101433.5
101431.8
101430.1
101428.3
101426.5
101424.6
101423.2
101443.2
101443.2
101443.1
101442.8
101442.4
101442.1
101441.7
101441.3
101440.9
101440.4
101439.8
101439.2
101438.6
101437.9
101437.2
101436.4
101435.5
101434.6
101433.7
101432.6
101431.5
101430.4
101429.1
101427.8
101426.4
101425
101423.4
101421.7
101420
101417.8
101443.4
101443.4
101443.3
101443.1
101442.8
101442.5
101442.1
101441.8
101441.4
101440.9
101440.4
101439.9
101439.4
101438.8
101438.2
101437.5
101436.8
101436.1
101435.3
101434.5
101433.6
101432.7
101431.8
101430.8
101429.8
101428.7
101427.7
101426.5
101425.4
101424
101443.9
101443.9
101443.8
101443.6
101443.4
101443.1
101442.8
101442.5
101442.1
101441.7
101441.3
101440.9
101440.4
101439.9
101439.3
101438.8
101438.2
101437.5
101436.9
101436.2
101435.4
101434.7
101433.9
101433
101432.2
101431.2
101430.3
101429.3
101428.2
101427.2
101444.1
101444.1
101444
101443.7
101443.5
101443.2
101442.8
101442.5
101442.1
101441.7
101441.2
101440.7
101440.2
101439.6
101439.1
101438.4
101437.8
101437.1
101436.3
101435.5
101434.7
101433.8
101432.9
101432
101431
101430
101428.9
101427.7
101426.6
101425.3
101447.4
101447.4
101447.3
101447.1
101446.8
101446.5
101446.2
101445.9
101445.5
101445.1
101444.7
101444.2
101443.7
101443.2
101442.7
101442.1
101441.4
101440.7
101440
101439.2
101438.4
101437.6
101436.7
101435.7
101434.7
101433.7
101432.6
101431.4
101430.2
101428.8
101447.4
101447.4
101447.3
101447.1
101446.9
101446.6
101446.3
101446
101445.7
101445.3
101444.9
101444.5
101444.1
101443.6
101443.1
101442.5
101442
101441.4
101440.7
101440.1
101439.4
101438.7
101437.9
101437.2
101436.4
101435.5
101434.7
101433.8
101432.9
101431.9
101447.5
101447.5
101447.4
101447.3
101447.1
101446.8
101446.5
101446.2
101445.9
101445.5
101445.2
101444.8
101444.3
101443.9
101443.4
101442.9
101442.3
101441.8
101441.1
101440.5
101439.8
101439.1
101438.4
101437.6
101436.8
101436
101435.1
101434.2
101433.2
101432
101447.5
101447.5
101447.4
101447.2
101447
101446.7
101446.4
101446
101445.7
101445.3
101444.9
101444.5
101444
101443.5
101443
101442.4
101441.8
101441.2
101440.5
101439.8
101439
101438.2
101437.4
101436.5
101435.6
101434.6
101433.6
101432.5
101431.4
101430.1
101448.8
101448.8
101448.6
101448.5
101448.3
101448
101447.7
101447.4
101447.1
101446.8
101446.4
101446
101445.5
101445.1
101444.5
101444
101443.4
101442.8
101442.1
101441.4
101440.6
101439.9
101439
101438.1
101437.2
101436.3
101435.2
101434.1
101433
101431.7
101448.9
101448.9
101448.8
101448.7
101448.5
101448.3
101448
101447.7
101447.4
101447.1
101446.7
101446.3
101445.9
101445.5
101445
101444.5
101444
101443.5
101442.9
101442.3
101441.7
101441
101440.3
101439.6
101438.9
101438.2
101437.4
101436.6
101435.8
101434.7
101448.9
101448.9
101448.8
101448.7
101448.5
101448.3
101448
101447.8
101447.5
101447.2
101446.8
101446.5
101446.1
101445.6
101445.2
101444.7
101444.2
101443.6
101443.1
101442.5
101441.8
101441.2
101440.5
101439.8
101439.1
101438.3
101437.6
101436.7
101435.9
101434.8
101448.8
101448.7
101448.6
101448.5
101448.3
101448
101447.7
101447.5
101447.2
101446.8
101446.5
101446.1
101445.6
101445.2
101444.6
101444.1
101443.5
101442.9
101442.3
101441.6
101440.8
101440.1
101439.3
101438.4
101437.5
101436.6
101435.6
101434.5
101433.5
101432.2
101449.2
101449.2
101449.1
101448.9
101448.7
101448.4
101448.2
101447.9
101447.6
101447.3
101446.9
101446.5
101446.1
101445.6
101445.1
101444.6
101444
101443.4
101442.8
101442.1
101441.3
101440.6
101439.8
101438.9
101438
101437.1
101436.1
101435.1
101434
101432.7
101449.3
101449.3
101449.3
101449.1
101448.9
101448.7
101448.5
101448.2
101447.9
101447.5
101447.2
101446.8
101446.4
101446
101445.6
101445.1
101444.6
101444.1
101443.5
101442.9
101442.3
101441.7
101441
101440.4
101439.7
101438.9
101438.2
101437.4
101436.6
101435.5
101449.3
101449.3
101449.2
101449.1
101448.9
101448.7
101448.5
101448.2
101447.9
101447.6
101447.2
101446.9
101446.5
101446.1
101445.6
101445.1
101444.6
101444.1
101443.5
101442.9
101442.3
101441.7
101441
101440.3
101439.6
101438.9
101438.2
101437.4
101436.6
101435.5
101449.2
101449.2
101449.1
101448.9
101448.7
101448.4
101448.2
101447.9
101447.6
101447.3
101446.9
101446.5
101446.1
101445.6
101445.1
101444.6
101444
101443.4
101442.7
101442
101441.3
101440.6
101439.7
101438.9
101438
101437.1
101436.1
101435
101434
101432.7
101448.7
101448.7
101448.6
101448.4
101448.2
101448
101447.7
101447.4
101447.1
101446.8
101446.4
101446
101445.6
101445.1
101444.6
101444
101443.5
101442.9
101442.2
101441.5
101440.8
101440
101439.2
101438.4
101437.5
101436.5
101435.6
101434.5
101433.4
101432.2
101448.8
101448.8
101448.7
101448.6
101448.4
101448.2
101448
101447.7
101447.4
101447.1
101446.7
101446.4
101445.9
101445.5
101445
101444.5
101444
101443.5
101442.9
101442.4
101441.8
101441.1
101440.4
101439.7
101439
101438.3
101437.5
101436.7
101435.8
101434.7
101448.8
101448.8
101448.8
101448.6
101448.4
101448.2
101447.9
101447.6
101447.3
101447
101446.6
101446.2
101445.8
101445.4
101444.9
101444.4
101443.9
101443.4
101442.8
101442.2
101441.6
101440.9
101440.2
101439.5
101438.8
101438.1
101437.3
101436.5
101435.7
101434.6
101448.7
101448.7
101448.6
101448.4
101448.2
101448
101447.7
101447.4
101447.1
101446.7
101446.4
101445.9
101445.5
101445
101444.5
101443.9
101443.3
101442.7
101442
101441.3
101440.6
101439.8
101439
101438.1
101437.2
101436.2
101435.2
101434.1
101433
101431.7
101447.5
101447.5
101447.4
101447.2
101447
101446.7
101446.3
101446
101445.7
101445.3
101444.9
101444.5
101444
101443.5
101443
101442.4
101441.8
101441.2
101440.5
101439.8
101439
101438.2
101437.3
101436.4
101435.5
101434.5
101433.5
101432.4
101431.3
101430
101447.5
101447.5
101447.4
101447.3
101447.1
101446.8
101446.6
101446.3
101445.9
101445.6
101445.2
101444.8
101444.4
101443.9
101443.4
101442.9
101442.3
101441.7
101441.1
101440.5
101439.8
101439.1
101438.4
101437.6
101436.8
101436
101435.1
101434.2
101433.2
101432
101447.4
101447.4
101447.3
101447.1
101446.9
101446.6
101446.3
101446
101445.7
101445.3
101444.9
101444.5
101444
101443.5
101443
101442.5
101441.9
101441.3
101440.7
101440
101439.4
101438.6
101437.9
101437.1
101436.3
101435.5
101434.7
101433.8
101432.9
101431.8
101447.4
101447.3
101447.2
101447
101446.8
101446.5
101446.1
101445.8
101445.5
101445.1
101444.7
101444.2
101443.7
101443.2
101442.6
101442
101441.4
101440.7
101440
101439.2
101438.4
101437.5
101436.6
101435.7
101434.7
101433.6
101432.5
101431.3
101430.1
101428.7
101444.1
101444
101443.9
101443.7
101443.4
101443.1
101442.8
101442.4
101442
101441.6
101441.2
101440.7
101440.2
101439.6
101439
101438.4
101437.7
101437
101436.3
101435.5
101434.6
101433.8
101432.9
101431.9
101430.9
101429.9
101428.8
101427.7
101426.5
101425.2
101443.9
101443.9
101443.8
101443.6
101443.4
101443.1
101442.8
101442.4
101442.1
101441.7
101441.3
101440.8
101440.3
101439.8
101439.3
101438.7
101438.1
101437.4
101436.8
101436.1
101435.3
101434.6
101433.8
101432.9
101432.1
101431.1
101430.2
101429.2
101428.1
101427.1
101443.4
101443.4
101443.2
101443
101442.7
101442.4
101442.1
101441.7
101441.3
101440.8
101440.4
101439.8
101439.3
101438.7
101438.1
101437.4
101436.7
101436
101435.2
101434.4
101433.5
101432.6
101431.7
101430.7
101429.7
101428.6
101427.6
101426.4
101425.3
101423.9
101443.2
101443.1
101443
101442.7
101442.4
101442
101441.6
101441.2
101440.8
101440.3
101439.7
101439.1
101438.5
101437.8
101437.1
101436.3
101435.4
101434.5
101433.6
101432.5
101431.4
101430.3
101429
101427.7
101426.3
101424.9
101423.3
101421.6
101419.9
101417.7
101462
101462.1
101462.2
101462.3
101462.5
101462.8
101463.1
101463.4
101463.6
101463.9
101464.2
101464.4
101464.7
101464.9
101465.2
101465.4
101465.6
101465.8
101466
101466.2
101466.4
101466.5
101466.7
101466.8
101466.9
101467
101467
101467
101467
101467
101461.9
101462
101462.1
101462.3
101462.5
101462.8
101463.2
101463.5
101463.9
101464.2
101464.5
101464.9
101465.2
101465.5
101465.9
101466.2
101466.6
101466.9
101467.3
101467.6
101468
101468.3
101468.7
101469
101469.4
101469.7
101470.1
101470.4
101470.8
101471.2
101462.2
101462.3
101462.4
101462.6
101462.9
101463.3
101463.7
101464.1
101464.5
101464.9
101465.3
101465.7
101466.1
101466.5
101466.9
101467.4
101467.8
101468.3
101468.7
101469.2
101469.7
101470.2
101470.7
101471.2
101471.7
101472.3
101472.9
101473.6
101474.3
101475.1
101462.6
101462.7
101462.8
101463
101463.3
101463.7
101464.1
101464.5
101464.9
101465.3
101465.7
101466.2
101466.6
101467.1
101467.5
101468
101468.4
101468.9
101469.4
101469.9
101470.4
101471
101471.5
101472.1
101472.7
101473.3
101473.9
101474.6
101475.3
101476.2
101468.3
101468.4
101468.6
101468.8
101469.2
101469.6
101470.1
101470.5
101471
101471.5
101472
101472.5
101473
101473.5
101474
101474.5
101475
101475.5
101476
101476.6
101477.1
101477.7
101478.2
101478.8
101479.4
101480
101480.5
101481.1
101481.7
101482.5
101468.2
101468.3
101468.5
101468.7
101469
101469.5
101470
101470.5
101471
101471.5
101472
101472.6
101473.1
101473.6
101474.2
101474.7
101475.3
101475.9
101476.5
101477.1
101477.8
101478.4
101479.1
101479.8
101480.5
101481.2
101482
101482.8
101483.6
101484.7
101468.4
101468.5
101468.6
101468.9
101469.2
101469.7
101470.2
101470.7
101471.2
101471.7
101472.3
101472.8
101473.3
101473.9
101474.4
101475
101475.6
101476.2
101476.8
101477.5
101478.1
101478.8
101479.5
101480.2
101480.9
101481.6
101482.4
101483.2
101484.1
101485.3
101468.6
101468.7
101468.9
101469.1
101469.5
101470
101470.5
101471
101471.5
101472
101472.6
101473.1
101473.7
101474.3
101474.8
101475.4
101476.1
101476.7
101477.3
101478
101478.7
101479.4
101480.1
101480.8
101481.6
101482.4
101483.2
101484.1
101485
101486
101471
101471.1
101471.3
101471.5
101471.9
101472.3
101472.8
101473.3
101473.8
101474.3
101474.9
101475.4
101475.9
101476.5
101477.1
101477.7
101478.3
101478.9
101479.5
101480.1
101480.8
101481.5
101482.2
101482.9
101483.6
101484.4
101485.1
101485.9
101486.8
101487.8
101470.8
101470.9
101471
101471.3
101471.7
101472.1
101472.6
101473.1
101473.6
101474.1
101474.7
101475.2
101475.8
101476.4
101477
101477.6
101478.2
101478.8
101479.5
101480.2
101480.8
101481.6
101482.3
101483
101483.8
101484.6
101485.4
101486.3
101487.2
101488.4
101470.8
101470.9
101471.1
101471.3
101471.7
101472.2
101472.6
101473.1
101473.7
101474.2
101474.7
101475.3
101475.8
101476.4
101477
101477.6
101478.2
101478.9
101479.5
101480.2
101480.9
101481.6
101482.4
101483.1
101483.9
101484.7
101485.5
101486.4
101487.3
101488.5
101471
101471.2
101471.3
101471.6
101471.9
101472.4
101472.9
101473.4
101473.9
101474.4
101475
101475.5
101476.1
101476.7
101477.3
101477.9
101478.5
101479.1
101479.8
101480.5
101481.2
101481.9
101482.6
101483.4
101484.1
101484.9
101485.8
101486.6
101487.5
101488.5
101471.6
101471.7
101471.9
101472.1
101472.5
101473
101473.5
101474
101474.5
101475
101475.6
101476.1
101476.7
101477.3
101477.9
101478.5
101479.1
101479.7
101480.4
101481.1
101481.7
101482.4
101483.2
101483.9
101484.7
101485.5
101486.3
101487.2
101488
101489.1
101471.3
101471.4
101471.6
101471.8
101472.2
101472.7
101473.2
101473.7
101474.3
101474.8
101475.3
101475.9
101476.5
101477.1
101477.7
101478.3
101478.9
101479.5
101480.2
101480.9
101481.6
101482.3
101483.1
101483.8
101484.6
101485.4
101486.2
101487.1
101488.1
101489.3
101471.3
101471.5
101471.6
101471.9
101472.2
101472.7
101473.2
101473.7
101474.2
101474.8
101475.3
101475.9
101476.4
101477
101477.6
101478.2
101478.9
101479.5
101480.2
101480.9
101481.6
101482.3
101483.1
101483.8
101484.6
101485.4
101486.3
101487.1
101488.1
101489.3
101471.6
101471.7
101471.9
101472.1
101472.5
101473
101473.5
101474
101474.5
101475
101475.6
101476.1
101476.7
101477.3
101477.8
101478.4
101479.1
101479.7
101480.4
101481
101481.7
101482.4
101483.2
101483.9
101484.7
101485.5
101486.3
101487.2
101488
101489.1
101471
101471.2
101471.3
101471.6
101471.9
101472.4
101472.9
101473.4
101473.9
101474.4
101475
101475.5
101476.1
101476.7
101477.3
101477.9
101478.5
101479.1
101479.8
101480.4
101481.1
101481.8
101482.5
101483.3
101484.1
101484.9
101485.7
101486.5
101487.4
101488.5
101470.7
101470.9
101471
101471.3
101471.6
101472.1
101472.6
101473.1
101473.6
101474.1
101474.7
101475.2
101475.8
101476.4
101477
101477.6
101478.2
101478.9
101479.5
101480.2
101480.9
101481.6
101482.3
101483.1
101483.8
101484.6
101485.5
101486.3
101487.3
101488.5
101470.6
101470.7
101470.9
101471.1
101471.5
101472
101472.5
101473
101473.5
101474.1
101474.6
101475.2
101475.7
101476.3
101476.9
101477.5
101478.1
101478.8
101479.4
101480.1
101480.8
101481.5
101482.2
101483
101483.8
101484.6
101485.4
101486.2
101487.2
101488.3
101470.9
101471
101471.2
101471.4
101471.8
101472.2
101472.7
101473.2
101473.7
101474.2
101474.8
101475.3
101475.9
101476.4
101477
101477.6
101478.2
101478.8
101479.4
101480.1
101480.7
101481.4
101482.1
101482.8
101483.5
101484.3
101485.1
101485.8
101486.7
101487.7
101468.7
101468.8
101468.9
101469.2
101469.5
101470
101470.5
101471
101471.6
101472.1
101472.6
101473.1
101473.7
101474.3
101474.8
101475.4
101476
101476.7
101477.3
101478
101478.7
101479.4
101480.1
101480.8
101481.6
101482.4
101483.2
101484.1
101485
101486
101468.4
101468.5
101468.7
101468.9
101469.3
101469.7
101470.2
101470.7
101471.2
101471.7
101472.2
101472.8
101473.3
101473.9
101474.4
101475
101475.6
101476.2
101476.8
101477.4
101478.1
101478.8
101479.4
101480.1
101480.9
101481.6
101482.4
101483.2
101484.1
101485.3
101468.2
101468.3
101468.5
101468.7
101469.1
101469.5
101470
101470.5
101471
101471.5
101472
101472.6
101473.1
101473.6
101474.2
101474.7
101475.3
101475.9
101476.5
101477.1
101477.8
101478.4
101479.1
101479.8
101480.5
101481.2
101482
101482.8
101483.6
101484.6
101468.4
101468.5
101468.6
101468.8
101469.2
101469.6
101470.1
101470.6
101471
101471.5
101472
101472.5
101472.9
101473.4
101473.9
101474.5
101475
101475.5
101476
101476.6
101477.1
101477.6
101478.2
101478.8
101479.3
101479.9
101480.5
101481.1
101481.7
101482.5
101462.5
101462.6
101462.7
101462.9
101463.2
101463.6
101464
101464.4
101464.9
101465.3
101465.7
101466.1
101466.5
101467
101467.4
101467.9
101468.4
101468.8
101469.3
101469.8
101470.3
101470.9
101471.4
101472
101472.6
101473.2
101473.8
101474.5
101475.2
101476.1
101462.1
101462.2
101462.3
101462.5
101462.8
101463.2
101463.6
101464
101464.4
101464.8
101465.2
101465.6
101466
101466.4
101466.9
101467.3
101467.7
101468.2
101468.6
101469.1
101469.6
101470.1
101470.6
101471.1
101471.7
101472.2
101472.8
101473.5
101474.2
101475
101461.8
101461.9
101462
101462.1
101462.4
101462.7
101463.1
101463.4
101463.8
101464.1
101464.5
101464.8
101465.1
101465.5
101465.8
101466.2
101466.5
101466.8
101467.2
101467.5
101467.9
101468.2
101468.6
101468.9
101469.3
101469.7
101470
101470.4
101470.7
101471.2
101461.9
101462
101462.1
101462.2
101462.4
101462.7
101463
101463.3
101463.5
101463.8
101464.1
101464.3
101464.6
101464.8
101465.1
101465.3
101465.5
101465.8
101466
101466.1
101466.3
101466.5
101466.6
101466.7
101466.8
101466.9
101467
101466.9
101466.9
101466.9
101484.9
101485
101485.1
101485.3
101485.6
101485.9
101486.4
101486.8
101487.3
101487.7
101488.2
101488.8
101489.3
101489.8
101490.4
101490.9
101491.5
101492.1
101492.7
101493.4
101494
101494.7
101495.4
101496.2
101496.9
101497.7
101498.5
101499.4
101500.2
101501.1
101484.9
101485
101485.1
101485.3
101485.6
101485.9
101486.4
101486.8
101487.3
101487.7
101488.2
101488.7
101489.2
101489.7
101490.2
101490.8
101491.3
101491.9
101492.5
101493.1
101493.7
101494.3
101495
101495.6
101496.3
101497
101497.7
101498.4
101499.2
101499.9
101485.1
101485.2
101485.3
101485.5
101485.8
101486.2
101486.6
101487
101487.5
101487.9
101488.4
101488.9
101489.4
101489.9
101490.4
101491
101491.5
101492.1
101492.7
101493.3
101493.9
101494.5
101495.2
101495.9
101496.6
101497.3
101498
101498.8
101499.5
101500.3
101485.3
101485.3
101485.4
101485.6
101485.9
101486.3
101486.7
101487.1
101487.6
101488.1
101488.5
101489
101489.5
101490.1
101490.6
101491.2
101491.7
101492.3
101492.9
101493.6
101494.2
101494.9
101495.6
101496.3
101497.1
101497.9
101498.7
101499.5
101500.4
101501.3
101487.7
101487.8
101487.9
101488.1
101488.3
101488.7
101489
101489.4
101489.9
101490.3
101490.7
101491.2
101491.6
101492.1
101492.6
101493.1
101493.6
101494.2
101494.7
101495.3
101495.9
101496.5
101497.1
101497.8
101498.4
101499.1
101499.8
101500.6
101501.3
101502.1
101487.7
101487.7
101487.8
101488
101488.3
101488.7
101489.1
101489.5
101489.9
101490.3
101490.7
101491.2
101491.7
101492.1
101492.6
101493.1
101493.6
101494.2
101494.7
101495.3
101495.9
101496.5
101497.1
101497.7
101498.3
101499
101499.7
101500.4
101501.1
101501.8
101487.8
101487.8
101487.9
101488.1
101488.4
101488.8
101489.1
101489.5
101490
101490.4
101490.8
101491.3
101491.7
101492.2
101492.7
101493.2
101493.7
101494.3
101494.8
101495.4
101496
101496.6
101497.2
101497.8
101498.5
101499.2
101499.9
101500.6
101501.3
101502.1
101487.9
101488
101488.1
101488.3
101488.5
101488.9
101489.3
101489.7
101490.1
101490.5
101491
101491.5
101491.9
101492.4
101492.9
101493.5
101494
101494.6
101495.1
101495.7
101496.4
101497
101497.6
101498.3
101499
101499.8
101500.5
101501.3
101502.1
101502.9
101488.6
101488.6
101488.7
101488.9
101489.2
101489.5
101489.9
101490.2
101490.6
101491.1
101491.5
101491.9
101492.4
101492.9
101493.4
101493.9
101494.4
101494.9
101495.5
101496
101496.6
101497.2
101497.9
101498.5
101499.2
101499.9
101500.6
101501.4
101502.1
101502.9
101488.5
101488.5
101488.6
101488.8
101489.1
101489.4
101489.8
101490.2
101490.6
101491
101491.4
101491.8
101492.3
101492.7
101493.2
101493.7
101494.2
101494.7
101495.2
101495.8
101496.3
101496.9
101497.5
101498.1
101498.7
101499.3
101500
101500.6
101501.3
101502
101488.5
101488.5
101488.6
101488.8
101489.1
101489.4
101489.8
101490.2
101490.6
101491
101491.4
101491.8
101492.3
101492.8
101493.2
101493.7
101494.2
101494.7
101495.3
101495.8
101496.4
101496.9
101497.5
101498.1
101498.8
101499.4
101500.1
101500.7
101501.4
101502.2
101488.6
101488.6
101488.7
101488.9
101489.2
101489.5
101489.9
101490.3
101490.7
101491.1
101491.5
101492
101492.5
101492.9
101493.4
101493.9
101494.5
101495
101495.6
101496.1
101496.7
101497.3
101498
101498.6
101499.3
101500
101500.7
101501.5
101502.2
101503.1
101488.8
101488.8
101488.9
101489.1
101489.3
101489.7
101490
101490.4
101490.8
101491.3
101491.7
101492.1
101492.6
101493.1
101493.5
101494
101494.6
101495.1
101495.6
101496.2
101496.8
101497.4
101498.1
101498.7
101499.4
101500.1
101500.8
101501.6
101502.3
101503.1
101488.7
101488.7
101488.8
101489
101489.3
101489.6
101489.9
101490.3
101490.7
101491.1
101491.5
101492
101492.4
101492.9
101493.3
101493.8
101494.3
101494.8
101495.3
101495.9
101496.4
101497
101497.6
101498.2
101498.8
101499.4
101500
101500.7
101501.4
101502.1
101488.7
101488.7
101488.8
101489
101489.2
101489.6
101489.9
101490.3
101490.7
101491.1
101491.5
101492
101492.4
101492.9
101493.3
101493.8
101494.3
101494.8
101495.3
101495.9
101496.4
101497
101497.6
101498.2
101498.8
101499.4
101500
101500.7
101501.4
101502.1
101488.8
101488.8
101488.9
101489.1
101489.3
101489.7
101490
101490.4
101490.8
101491.2
101491.7
101492.1
101492.6
101493.1
101493.5
101494
101494.6
101495.1
101495.7
101496.2
101496.8
101497.4
101498.1
101498.7
101499.4
101500.1
101500.8
101501.6
101502.3
101503.2
101488.6
101488.6
101488.7
101488.9
101489.2
101489.5
101489.9
101490.2
101490.7
101491.1
101491.5
101492
101492.4
101492.9
101493.4
101493.9
101494.4
101495
101495.5
101496.1
101496.7
101497.3
101497.9
101498.6
101499.3
101500
101500.7
101501.4
101502.2
101503
101488.5
101488.5
101488.6
101488.8
101489.1
101489.4
101489.8
101490.1
101490.5
101491
101491.4
101491.8
101492.3
101492.7
101493.2
101493.7
101494.2
101494.7
101495.2
101495.8
101496.3
101496.9
101497.5
101498.1
101498.7
101499.4
101500
101500.7
101501.4
101502.1
101488.5
101488.5
101488.6
101488.8
101489.1
101489.4
101489.8
101490.1
101490.6
101491
101491.4
101491.8
101492.3
101492.7
101493.2
101493.7
101494.2
101494.7
101495.2
101495.8
101496.3
101496.9
101497.5
101498.1
101498.7
101499.3
101499.9
101500.6
101501.3
101502
101488.5
101488.6
101488.7
101488.9
101489.1
101489.5
101489.8
101490.2
101490.6
101491
101491.5
101491.9
101492.4
101492.8
101493.3
101493.8
101494.4
101494.9
101495.4
101496
101496.6
101497.2
101497.8
101498.5
101499.2
101499.9
101500.6
101501.3
101502.1
101502.9
101487.9
101488
101488
101488.2
101488.5
101488.9
101489.2
101489.7
101490.1
101490.5
101491
101491.4
101491.9
101492.4
101492.9
101493.4
101494
101494.5
101495.1
101495.7
101496.3
101497
101497.6
101498.3
101499
101499.7
101500.5
101501.3
101502.1
101502.9
101487.8
101487.8
101487.9
101488.1
101488.4
101488.7
101489.1
101489.5
101489.9
101490.3
101490.8
101491.2
101491.7
101492.2
101492.7
101493.2
101493.7
101494.2
101494.8
101495.4
101496
101496.6
101497.2
101497.8
101498.5
101499.2
101499.9
101500.6
101501.3
101502.1
101487.7
101487.7
101487.8
101488
101488.3
101488.7
101489
101489.4
101489.9
101490.3
101490.7
101491.2
101491.6
101492.1
101492.6
101493.1
101493.6
101494.2
101494.7
101495.3
101495.8
101496.4
101497
101497.7
101498.3
101499
101499.7
101500.3
101501.1
101501.8
101487.7
101487.8
101487.9
101488
101488.3
101488.7
101489
101489.4
101489.8
101490.3
101490.7
101491.1
101491.6
101492.1
101492.6
101493.1
101493.6
101494.1
101494.7
101495.3
101495.8
101496.5
101497.1
101497.7
101498.4
101499.1
101499.8
101500.6
101501.3
101502.1
101485.2
101485.3
101485.4
101485.6
101485.9
101486.3
101486.7
101487.1
101487.6
101488
101488.5
101489
101489.5
101490
101490.6
101491.1
101491.7
101492.3
101492.9
101493.6
101494.2
101494.9
101495.6
101496.3
101497.1
101497.9
101498.7
101499.5
101500.4
101501.3
101485.1
101485.1
101485.2
101485.5
101485.8
101486.1
101486.6
101487
101487.4
101487.9
101488.4
101488.9
101489.4
101489.9
101490.4
101490.9
101491.5
101492.1
101492.7
101493.3
101493.9
101494.5
101495.2
101495.9
101496.6
101497.3
101498
101498.8
101499.5
101500.3
101484.9
101485
101485.1
101485.3
101485.6
101486
101486.4
101486.8
101487.3
101487.7