/*--------------------------------*- C++ -*----------------------------------*\
| =========                 |                                                 |
| \\      /  F ield         | OpenFOAM: The Open Source CFD Toolbox           |
|  \\    /   O peration     | Version:  4.0                                   |
|   \\  /    A nd           | Web:      www.OpenFOAM.org                      |
|    \\/     M anipulation  |                                                 |
\*---------------------------------------------------------------------------*/
FoamFile
{
    version     2.0;
    format      ascii;
    class       surfaceScalarField;
    location    "120/air";
    object      phi;
}
// * * * * * * * * * * * * * * * * * * * * * * * * * * * * * * * * * * * * * //

dimensions      [1 0 -1 0 0 0 0];

internalField   nonuniform List<scalar> 
111448
(
1.953128e-08
3.146804e-10
3.004044e-09
3.433617e-08
6.84393e-10
7.360712e-09
4.559132e-08
9.229757e-10
1.067188e-08
5.408993e-08
1.094221e-09
1.325717e-08
6.043139e-08
1.221537e-09
1.5287e-08
6.50883e-08
1.31695e-09
1.687614e-08
6.846248e-08
1.371443e-09
1.810438e-08
7.085838e-08
1.404671e-09
1.904943e-08
7.251682e-08
1.426326e-09
1.976524e-08
7.363253e-08
1.438764e-09
2.029552e-08
7.436373e-08
1.443495e-09
2.067531e-08
7.483697e-08
1.442542e-09
2.093422e-08
7.515038e-08
1.437464e-09
2.109913e-08
7.537501e-08
1.429288e-09
2.119608e-08
7.556693e-08
1.418766e-09
2.123931e-08
7.577373e-08
1.406464e-09
2.123674e-08
7.603208e-08
1.39276e-09
2.119889e-08
7.637022e-08
1.377895e-09
2.113397e-08
7.681005e-08
1.362024e-09
2.104814e-08
7.736909e-08
1.345233e-09
2.094572e-08
7.806217e-08
1.327541e-09
2.082938e-08
7.890323e-08
1.308851e-09
2.070009e-08
7.990737e-08
1.288837e-09
2.055702e-08
8.109352e-08
1.266705e-09
2.039715e-08
8.248808e-08
1.240737e-09
2.02147e-08
8.41306e-08
1.207434e-09
2.000005e-08
8.608313e-08
1.16003e-09
1.973744e-08
8.844644e-08
1.085549e-09
1.940114e-08
9.139196e-08
9.576522e-10
1.894682e-08
7.179946e-10
1.829889e-08
9.522508e-08
1.997948e-08
-5.54891e-12
3.19075e-09
3.557823e-08
-1.221053e-11
7.947853e-09
4.772839e-08
-1.673442e-11
1.163955e-08
5.713043e-08
-2.02443e-11
1.456243e-08
6.434895e-08
-2.309271e-11
1.68761e-08
6.983561e-08
-2.561212e-11
1.870591e-08
7.394527e-08
-2.792671e-11
2.013971e-08
7.698166e-08
-3.018398e-11
2.124847e-08
7.918615e-08
-3.240769e-11
2.210424e-08
8.074907e-08
-3.463847e-11
2.276049e-08
8.183886e-08
-3.696879e-11
2.324067e-08
8.259165e-08
-3.946516e-11
2.357922e-08
8.311599e-08
-4.217486e-11
2.380529e-08
8.349734e-08
-4.513191e-11
2.394308e-08
8.380207e-08
-4.836242e-11
2.40124e-08
8.408115e-08
-5.188864e-11
2.402927e-08
8.437315e-08
-5.573158e-11
2.400649e-08
8.470686e-08
-5.990955e-11
2.39541e-08
8.510358e-08
-6.443513e-11
2.387974e-08
8.557916e-08
-6.931732e-11
2.378897e-08
8.614585e-08
-7.456685e-11
2.368543e-08
8.681409e-08
-8.020512e-11
2.357081e-08
8.759451e-08
-8.628011e-11
2.34447e-08
8.850013e-08
-9.289592e-11
2.330398e-08
8.954927e-08
-1.002694e-10
2.314186e-08
9.076935e-08
-1.088187e-10
2.294618e-08
9.220217e-08
-1.19296e-10
2.26965e-08
9.391218e-08
-1.330189e-10
2.235856e-08
9.604401e-08
-1.524454e-10
2.182826e-08
-1.8064e-10
2.102266e-08
9.876999e-08
1.996889e-08
-3.174559e-10
3.19302e-09
3.554518e-08
-6.925437e-10
7.954037e-09
4.76653e-08
-9.357654e-10
1.164891e-08
5.703166e-08
-1.110704e-09
1.457411e-08
6.421045e-08
-1.241082e-09
1.688919e-08
6.965431e-08
-1.338926e-09
1.871946e-08
7.37191e-08
-1.395431e-09
2.015272e-08
7.671027e-08
-1.431295e-09
2.125994e-08
7.886742e-08
-1.45545e-09
2.211589e-08
8.038049e-08
-1.470282e-09
2.277258e-08
8.141831e-08
-1.47738e-09
2.325259e-08
8.211701e-08
-1.478821e-09
2.359066e-08
8.258482e-08
-1.476177e-09
2.381619e-08
8.290663e-08
-1.470472e-09
2.395353e-08
8.314809e-08
-1.462443e-09
2.402262e-08
8.335933e-08
-1.452652e-09
2.403953e-08
8.357806e-08
-1.441494e-09
2.401703e-08
8.383221e-08
-1.429191e-09
2.396513e-08
8.414222e-08
-1.415852e-09
2.389141e-08
8.452306e-08
-1.401492e-09
2.380134e-08
8.498615e-08
-1.386037e-09
2.369838e-08
8.554122e-08
-1.369295e-09
2.358402e-08
8.619832e-08
-1.350875e-09
2.34575e-08
8.697017e-08
-1.330024e-09
2.331527e-08
8.787563e-08
-1.305722e-09
2.315e-08
8.894409e-08
-1.276062e-09
2.294878e-08
9.022229e-08
-1.237748e-09
2.269025e-08
9.178751e-08
-1.184867e-09
2.233663e-08
9.380377e-08
-1.105038e-09
2.178634e-08
-9.693947e-10
2.095526e-08
9.648726e-08
1.952573e-08
3.00681e-09
3.431551e-08
7.36768e-09
4.55477e-08
1.068205e-08
5.401727e-08
1.326973e-08
6.032497e-08
1.530122e-08
6.494465e-08
1.689139e-08
6.827915e-08
1.812007e-08
7.063287e-08
1.906499e-08
7.224741e-08
1.978001e-08
7.33183e-08
2.030882e-08
7.400454e-08
2.068638e-08
7.443349e-08
2.094223e-08
7.470203e-08
2.110529e-08
7.487994e-08
2.120161e-08
7.502049e-08
2.124701e-08
7.516823e-08
2.124961e-08
7.53604e-08
2.121633e-08
7.562584e-08
2.115537e-08
7.59871e-08
2.107288e-08
7.646246e-08
2.097315e-08
7.70677e-08
2.085872e-08
7.781809e-08
2.073032e-08
7.873075e-08
2.058646e-08
7.982701e-08
2.042372e-08
8.113606e-08
2.023523e-08
8.269971e-08
2.001029e-08
8.458083e-08
1.973112e-08
8.687735e-08
1.936862e-08
8.974746e-08
1.887485e-08
1.81682e-08
9.345987e-08
1.952236e-08
3.151869e-10
3.012449e-09
3.43042e-08
6.86543e-10
7.381619e-09
4.552561e-08
9.267951e-10
1.070179e-08
5.398299e-08
1.099435e-09
1.329318e-08
6.027843e-08
1.227903e-09
1.532666e-08
6.48867e-08
1.324313e-09
1.691742e-08
6.82115e-08
1.379502e-09
1.81457e-08
7.055832e-08
1.413741e-09
1.908943e-08
7.216941e-08
1.436234e-09
1.980267e-08
7.324075e-08
1.449338e-09
2.032932e-08
7.393166e-08
1.454593e-09
2.070451e-08
7.43697e-08
1.454042e-09
2.095791e-08
7.465024e-08
1.449228e-09
2.112024e-08
7.48424e-08
1.441161e-09
2.121668e-08
7.499929e-08
1.43057e-09
2.126254e-08
7.51655e-08
1.418012e-09
2.126578e-08
7.537832e-08
1.403874e-09
2.123331e-08
7.566667e-08
1.388378e-09
2.117327e-08
7.605327e-08
1.371637e-09
2.109176e-08
7.655654e-08
1.353681e-09
2.099304e-08
7.719245e-08
1.334463e-09
2.087963e-08
7.797653e-08
1.313814e-09
2.07521e-08
7.892566e-08
1.291306e-09
2.060957e-08
8.006103e-08
1.266388e-09
2.044824e-08
8.141115e-08
1.237841e-09
2.026204e-08
8.301726e-08
1.20331e-09
2.004058e-08
8.494174e-08
1.158506e-09
1.976702e-08
8.728226e-08
1.095553e-09
1.941392e-08
9.019971e-08
9.981709e-10
1.893438e-08
8.294482e-10
1.824872e-08
9.397154e-08
1.996649e-08
-8.16613e-13
3.199513e-09
3.553481e-08
-1.83816e-12
7.970057e-09
4.764269e-08
-2.561692e-12
1.167148e-08
5.699457e-08
-3.137891e-12
1.460069e-08
6.415841e-08
-3.609818e-12
1.691767e-08
6.958881e-08
-4.090504e-12
1.8748e-08
7.364311e-08
-4.534756e-12
2.017974e-08
7.662743e-08
-4.96262e-12
2.128438e-08
7.877778e-08
-5.383465e-12
2.214127e-08
8.028524e-08
-5.808479e-12
2.279768e-08
8.131883e-08
-6.247435e-12
2.327725e-08
8.201484e-08
-6.70814e-12
2.361474e-08
8.248161e-08
-7.196921e-12
2.383965e-08
8.280403e-08
-7.718953e-12
2.397646e-08
8.304773e-08
-8.278605e-12
2.404515e-08
8.326276e-08
-8.879709e-12
2.406186e-08
8.348679e-08
-9.525679e-12
2.403937e-08
8.374771e-08
-1.021927e-11
2.398767e-08
8.406597e-08
-1.096176e-11
2.391434e-08
8.44566e-08
-1.175308e-11
2.38248e-08
8.493113e-08
-1.259253e-11
2.372252e-08
8.549943e-08
-1.348032e-11
2.360899e-08
8.617169e-08
-1.441972e-11
2.348347e-08
8.696103e-08
-1.541821e-11
2.334246e-08
8.788667e-08
-1.649707e-11
2.317871e-08
8.897828e-08
-1.770409e-11
2.29794e-08
9.028254e-08
-1.913471e-11
2.272338e-08
9.187352e-08
-2.097071e-11
2.237554e-08
9.391435e-08
-2.354415e-11
2.183089e-08
-2.726916e-11
2.100602e-08
9.661505e-08
1.996524e-08
-3.158334e-10
3.199777e-09
3.553089e-08
-6.882285e-10
7.970743e-09
4.763514e-08
-9.293238e-10
1.167251e-08
5.698264e-08
-1.102645e-09
1.460201e-08
6.414151e-08
-1.23168e-09
1.69192e-08
6.956637e-08
-1.32863e-09
1.874968e-08
7.361464e-08
-1.384301e-09
2.01815e-08
7.659258e-08
-1.419074e-09
2.128617e-08
7.873612e-08
-1.442085e-09
2.214316e-08
8.023652e-08
-1.455705e-09
2.279949e-08
8.126279e-08
-1.461485e-09
2.327896e-08
8.195122e-08
-1.461477e-09
2.361634e-08
8.241009e-08
-1.457224e-09
2.384116e-08
8.272421e-08
-1.449741e-09
2.39779e-08
8.295912e-08
-1.439757e-09
2.404657e-08
8.316478e-08
-1.427827e-09
2.406329e-08
8.337876e-08
-1.414343e-09
2.404083e-08
8.362887e-08
-1.399525e-09
2.39892e-08
8.393546e-08
-1.383477e-09
2.391593e-08
8.431347e-08
-1.366215e-09
2.382645e-08
8.477435e-08
-1.347678e-09
2.372421e-08
8.532791e-08
-1.327711e-09
2.361067e-08
8.598444e-08
-1.306e-09
2.348505e-08
8.675715e-08
-1.281936e-09
2.334381e-08
8.76654e-08
-1.254354e-09
2.317961e-08
8.873923e-08
-1.221087e-09
2.297955e-08
9.002603e-08
-1.17825e-09
2.272232e-08
9.160122e-08
-1.118783e-09
2.237262e-08
9.363018e-08
-1.028003e-09
2.18255e-08
-8.723074e-10
2.099731e-08
9.632791e-08
1.952127e-08
3.012892e-09
3.430035e-08
7.382692e-09
4.551769e-08
1.070334e-08
5.396996e-08
1.329509e-08
6.025946e-08
1.532882e-08
6.486107e-08
1.691976e-08
6.817865e-08
1.814812e-08
7.051773e-08
1.909185e-08
7.212063e-08
1.980501e-08
7.318344e-08
2.033148e-08
7.386557e-08
2.070639e-08
7.429467e-08
2.095942e-08
7.45659e-08
2.112155e-08
7.474826e-08
2.121789e-08
7.489465e-08
2.126385e-08
7.504906e-08
2.126776e-08
7.524884e-08
2.123588e-08
7.552298e-08
2.117633e-08
7.589427e-08
2.109523e-08
7.638123e-08
2.099682e-08
7.699995e-08
2.08836e-08
7.776598e-08
2.075627e-08
7.869646e-08
2.061352e-08
7.981268e-08
2.045184e-08
8.114344e-08
2.026489e-08
8.273024e-08
2.004211e-08
8.463557e-08
1.976642e-08
8.695677e-08
1.941002e-08
8.985328e-08
1.89255e-08
1.823235e-08
9.359862e-08
1.952118e-08
3.154162e-10
3.013401e-09
3.43001e-08
6.87174e-10
7.383904e-09
4.55173e-08
9.277656e-10
1.070504e-08
5.396949e-08
1.100682e-09
1.329713e-08
6.025903e-08
1.229381e-09
1.533108e-08
6.48609e-08
1.325997e-09
1.692214e-08
6.817898e-08
1.381367e-09
1.815055e-08
7.051888e-08
1.41581e-09
1.909429e-08
7.212298e-08
1.4385e-09
1.980741e-08
7.318737e-08
1.451802e-09
2.03338e-08
7.38715e-08
1.457261e-09
2.070862e-08
7.430306e-08
1.456921e-09
2.096152e-08
7.457709e-08
1.452319e-09
2.112365e-08
7.476257e-08
1.444463e-09
2.122007e-08
7.491237e-08
1.434079e-09
2.126611e-08
7.507065e-08
1.421722e-09
2.127e-08
7.527478e-08
1.407782e-09
2.123808e-08
7.55538e-08
1.392482e-09
2.11785e-08
7.593051e-08
1.375928e-09
2.109736e-08
7.642344e-08
1.358143e-09
2.099893e-08
7.704866e-08
1.339075e-09
2.08857e-08
7.782167e-08
1.318575e-09
2.075842e-08
7.875956e-08
1.29633e-09
2.061578e-08
7.98835e-08
1.271728e-09
2.045433e-08
8.122218e-08
1.243579e-09
2.026775e-08
8.281695e-08
1.20965e-09
2.004558e-08
8.47302e-08
1.16592e-09
1.977082e-08
8.70593e-08
1.105047e-09
1.941586e-08
8.996404e-08
1.011794e-09
1.893347e-08
8.513742e-10
1.824351e-08
9.371915e-08
1.996516e-08
-1.521378e-13
3.200407e-09
3.553045e-08
-3.485862e-13
7.972237e-09
4.763409e-08
-4.903953e-13
1.167461e-08
5.698084e-08
-6.036383e-13
1.460454e-08
6.413887e-08
-6.975943e-13
1.692204e-08
6.956292e-08
-7.939474e-13
1.875274e-08
7.361046e-08
-8.852094e-13
2.018471e-08
7.658778e-08
-9.756654e-13
2.128946e-08
7.873062e-08
-1.068609e-12
2.214672e-08
8.023059e-08
-1.167464e-12
2.2803e-08
8.125674e-08
-1.273392e-12
2.328238e-08
8.194539e-08
-1.387335e-12
2.361966e-08
8.240482e-08
-1.510048e-12
2.38444e-08
8.271984e-08
-1.64205e-12
2.398108e-08
8.295599e-08
-1.783622e-12
2.404972e-08
8.316322e-08
-1.934793e-12
2.406642e-08
8.337913e-08
-2.095312e-12
2.404397e-08
8.363152e-08
-2.264566e-12
2.399236e-08
8.394075e-08
-2.44143e-12
2.391913e-08
8.43218e-08
-2.62426e-12
2.382972e-08
8.478611e-08
-2.811003e-12
2.372758e-08
8.534352e-08
-2.999424e-12
2.361417e-08
8.60043e-08
-3.187524e-12
2.348873e-08
8.678167e-08
-3.374232e-12
2.334774e-08
8.769494e-08
-3.560564e-12
2.318387e-08
8.877408e-08
-3.75149e-12
2.298426e-08
9.006631e-08
-3.959178e-12
2.272765e-08
9.16467e-08
-4.208948e-12
2.237886e-08
9.368006e-08
-4.548647e-12
2.183299e-08
-5.029345e-12
2.100655e-08
9.637991e-08
1.996494e-08
-3.155511e-10
3.200455e-09
3.552974e-08
-6.87513e-10
7.972365e-09
4.763271e-08
-9.282648e-10
1.167481e-08
5.697862e-08
-1.10131e-09
1.460479e-08
6.413571e-08
-1.230116e-09
1.692234e-08
6.955868e-08
-1.326838e-09
1.875307e-08
7.360503e-08
-1.382306e-09
2.018507e-08
7.658106e-08
-1.416853e-09
2.128984e-08
7.872251e-08
-1.439651e-09
2.214713e-08
8.022106e-08
-1.453067e-09
2.280335e-08
8.124576e-08
-1.45865e-09
2.328268e-08
8.193291e-08
-1.458446e-09
2.361991e-08
8.239078e-08
-1.453992e-09
2.384461e-08
8.270418e-08
-1.446297e-09
2.398126e-08
8.293861e-08
-1.436087e-09
2.404988e-08
8.314401e-08
-1.423915e-09
2.406657e-08
8.335796e-08
-1.410171e-09
2.404413e-08
8.360825e-08
-1.395076e-09
2.399252e-08
8.391524e-08
-1.378732e-09
2.391931e-08
8.429386e-08
-1.361159e-09
2.382991e-08
8.475557e-08
-1.342296e-09
2.372777e-08
8.53102e-08
-1.321989e-09
2.361436e-08
8.596802e-08
-1.299922e-09
2.348891e-08
8.674224e-08
-1.275482e-09
2.334788e-08
8.765224e-08
-1.247487e-09
2.318393e-08
8.872804e-08
-1.213733e-09
2.298418e-08
9.001698e-08
-1.170257e-09
2.272736e-08
9.159438e-08
-1.109845e-09
2.237824e-08
9.36254e-08
-1.017514e-09
2.183194e-08
-8.590111e-10
2.100497e-08
9.632441e-08
1.952097e-08
3.013484e-09
3.429934e-08
7.384108e-09
4.551574e-08
1.070534e-08
5.396694e-08
1.329749e-08
6.025533e-08
1.533149e-08
6.485592e-08
1.692258e-08
6.817261e-08
1.8151e-08
7.051102e-08
1.909474e-08
7.211354e-08
1.980783e-08
7.317629e-08
2.033418e-08
7.385869e-08
2.070894e-08
7.428846e-08
2.096178e-08
7.456059e-08
2.112388e-08
7.474402e-08
2.122027e-08
7.48916e-08
2.126633e-08
7.504737e-08
2.127032e-08
7.52487e-08
2.12385e-08
7.552462e-08
2.1179e-08
7.589795e-08
2.109794e-08
7.638721e-08
2.099957e-08
7.700852e-08
2.08864e-08
7.777739e-08
2.075914e-08
7.871098e-08
2.061649e-08
7.983052e-08
2.045497e-08
8.116478e-08
2.026825e-08
8.275522e-08
2.004583e-08
8.466429e-08
1.977067e-08
8.698937e-08
1.941507e-08
8.989012e-08
1.893173e-08
1.824034e-08
9.364077e-08
1.952087e-08
3.154902e-10
3.013645e-09
3.429899e-08
6.873662e-10
7.384509e-09
4.551502e-08
9.280547e-10
1.070592e-08
5.396575e-08
1.101051e-09
1.329821e-08
6.025364e-08
1.229819e-09
1.53323e-08
6.48537e-08
1.326499e-09
1.692344e-08
6.816989e-08
1.381929e-09
1.815188e-08
7.050786e-08
1.416432e-09
1.90956e-08
7.211002e-08
1.439187e-09
1.980865e-08
7.317253e-08
1.452556e-09
2.033493e-08
7.385485e-08
1.458089e-09
2.070959e-08
7.428472e-08
1.457832e-09
2.09623e-08
7.455706e-08
1.45332e-09
2.112434e-08
7.474076e-08
1.44556e-09
2.122074e-08
7.488865e-08
1.435278e-09
2.126684e-08
7.504465e-08
1.423026e-09
2.127097e-08
7.52462e-08
1.409197e-09
2.123926e-08
7.552234e-08
1.394011e-09
2.117984e-08
7.589593e-08
1.377573e-09
2.109884e-08
7.638552e-08
1.359902e-09
2.10005e-08
7.700724e-08
1.34094e-09
2.088735e-08
7.777662e-08
1.320532e-09
2.076008e-08
7.871083e-08
1.298363e-09
2.061743e-08
7.983111e-08
1.273819e-09
2.04559e-08
8.116622e-08
1.245714e-09
2.026918e-08
8.275762e-08
1.211835e-09
2.004676e-08
8.46678e-08
1.168201e-09
1.977162e-08
8.699416e-08
1.107557e-09
1.941608e-08
8.989646e-08
1.014846e-09
1.893285e-08
8.556409e-10
1.824165e-08
9.364917e-08
1.996487e-08
3.994224e-16
3.200622e-09
3.552946e-08
8.975348e-16
7.972773e-09
4.763212e-08
1.266119e-15
1.16754e-08
5.697765e-08
1.590081e-15
1.460551e-08
6.413431e-08
1.892036e-15
1.692316e-08
6.955684e-08
2.250727e-15
1.875397e-08
7.360275e-08
2.625605e-15
2.018602e-08
7.657836e-08
3.027526e-15
2.129082e-08
7.871936e-08
3.47549e-15
2.214818e-08
8.021748e-08
3.987748e-15
2.280443e-08
8.124178e-08
4.540824e-15
2.328378e-08
8.192857e-08
5.11865e-15
2.362104e-08
8.238611e-08
5.708389e-15
2.384577e-08
8.26992e-08
6.301483e-15
2.398246e-08
8.293334e-08
6.893395e-15
2.405113e-08
8.31385e-08
7.478486e-15
2.406786e-08
8.335222e-08
8.052228e-15
2.404546e-08
8.360233e-08
8.607744e-15
2.399389e-08
8.39092e-08
9.139466e-15
2.39207e-08
8.428776e-08
9.641247e-15
2.383132e-08
8.47495e-08
1.010479e-14
2.372919e-08
8.530424e-08
1.051899e-14
2.361578e-08
8.596229e-08
1.087825e-14
2.349031e-08
8.673685e-08
1.118056e-14
2.334924e-08
8.764732e-08
1.144415e-14
2.318524e-08
8.872372e-08
1.172941e-14
2.298542e-08
9.001341e-08
1.217248e-14
2.27285e-08
9.159171e-08
1.305542e-14
2.237924e-08
9.362373e-08
1.491372e-14
2.183281e-08
1.86077e-14
2.100567e-08
9.632368e-08
1.996487e-08
-3.1549e-10
3.200622e-09
3.552946e-08
-6.873656e-10
7.972773e-09
4.763212e-08
-9.280536e-10
1.167539e-08
5.697766e-08
-1.10105e-09
1.460551e-08
6.413432e-08
-1.229817e-09
1.692316e-08
6.955685e-08
-1.326496e-09
1.875397e-08
7.360276e-08
-1.381926e-09
2.018602e-08
7.657838e-08
-1.416429e-09
2.129082e-08
7.871938e-08
-1.439183e-09
2.214818e-08
8.02175e-08
-1.452552e-09
2.280443e-08
8.124181e-08
-1.458084e-09
2.328379e-08
8.192859e-08
-1.457827e-09
2.362105e-08
8.238613e-08
-1.453314e-09
2.384578e-08
8.269923e-08
-1.445553e-09
2.398247e-08
8.293337e-08
-1.435271e-09
2.405113e-08
8.313853e-08
-1.423019e-09
2.406787e-08
8.335226e-08
-1.409189e-09
2.404547e-08
8.360237e-08
-1.394003e-09
2.39939e-08
8.390924e-08
-1.377565e-09
2.392071e-08
8.428781e-08
-1.359893e-09
2.383133e-08
8.474955e-08
-1.34093e-09
2.37292e-08
8.53043e-08
-1.320522e-09
2.361578e-08
8.596235e-08
-1.298353e-09
2.349031e-08
8.673692e-08
-1.273809e-09
2.334925e-08
8.764739e-08
-1.245704e-09
2.318524e-08
8.87238e-08
-1.211825e-09
2.298542e-08
9.00135e-08
-1.16819e-09
2.27285e-08
9.159181e-08
-1.107545e-09
2.237925e-08
9.362384e-08
-1.014829e-09
2.183282e-08
-8.556157e-10
2.100568e-08
9.632379e-08
1.952087e-08
3.013645e-09
3.429899e-08
7.38451e-09
4.551502e-08
1.070592e-08
5.396576e-08
1.329821e-08
6.025364e-08
1.53323e-08
6.485371e-08
1.692344e-08
6.81699e-08
1.815188e-08
7.050787e-08
1.90956e-08
7.211003e-08
1.980865e-08
7.317254e-08
2.033494e-08
7.385487e-08
2.070959e-08
7.428474e-08
2.09623e-08
7.45571e-08
2.112434e-08
7.474081e-08
2.122073e-08
7.48887e-08
2.126684e-08
7.504471e-08
2.127097e-08
7.524626e-08
2.123926e-08
7.552242e-08
2.117984e-08
7.589601e-08
2.109884e-08
7.638561e-08
2.100051e-08
7.700733e-08
2.088735e-08
7.777672e-08
2.076009e-08
7.871094e-08
2.061743e-08
7.983123e-08
2.04559e-08
8.116634e-08
2.026918e-08
8.275776e-08
2.004676e-08
8.466794e-08
1.977163e-08
8.699431e-08
1.941609e-08
8.989662e-08
1.893286e-08
1.824166e-08
9.364934e-08
1.952096e-08
3.155527e-10
3.013485e-09
3.429934e-08
6.875176e-10
7.384109e-09
4.551573e-08
9.28272e-10
1.070534e-08
5.396691e-08
1.101319e-09
1.32975e-08
6.025528e-08
1.230128e-09
1.53315e-08
6.485584e-08
1.326851e-09
1.692259e-08
6.81725e-08
1.382319e-09
1.815102e-08
7.051087e-08
1.416869e-09
1.909476e-08
7.211334e-08
1.43967e-09
1.980786e-08
7.317604e-08
1.453088e-09
2.033422e-08
7.385838e-08
1.458671e-09
2.070898e-08
7.42881e-08
1.458467e-09
2.096182e-08
7.456018e-08
1.454011e-09
2.11239e-08
7.474357e-08
1.446312e-09
2.12203e-08
7.489111e-08
1.436096e-09
2.126636e-08
7.504684e-08
1.423916e-09
2.127036e-08
7.524814e-08
1.410162e-09
2.123854e-08
7.552404e-08
1.395056e-09
2.117904e-08
7.589737e-08
1.378701e-09
2.109798e-08
7.638664e-08
1.361115e-09
2.099961e-08
7.700798e-08
1.342242e-09
2.088643e-08
7.777689e-08
1.321925e-09
2.075916e-08
7.871053e-08
1.299851e-09
2.061651e-08
7.983014e-08
1.275407e-09
2.045499e-08
8.116445e-08
1.247411e-09
2.026827e-08
8.275494e-08
1.21366e-09
2.004585e-08
8.466406e-08
1.170192e-09
1.977069e-08
8.698918e-08
1.109792e-09
1.941509e-08
8.988996e-08
1.01748e-09
1.893174e-08
8.590056e-10
1.824034e-08
9.364061e-08
1.996494e-08
1.52798e-13
3.200456e-09
3.552974e-08
3.500026e-13
7.972366e-09
4.763271e-08
4.91991e-13
1.167481e-08
5.697863e-08
6.049556e-13
1.460479e-08
6.413572e-08
6.983634e-13
1.692234e-08
6.955869e-08
7.940419e-13
1.875308e-08
7.360504e-08
8.846209e-13
2.018508e-08
7.658108e-08
9.742989e-13
2.128986e-08
7.872254e-08
1.065898e-12
2.214715e-08
8.022109e-08
1.162429e-12
2.280337e-08
8.124579e-08
1.265102e-12
2.32827e-08
8.193295e-08
1.374891e-12
2.361994e-08
8.239083e-08
1.492608e-12
2.384463e-08
8.270424e-08
1.618873e-12
2.398128e-08
8.293868e-08
1.754128e-12
2.40499e-08
8.31441e-08
1.898641e-12
2.40666e-08
8.335807e-08
2.052484e-12
2.404415e-08
8.360837e-08
2.215439e-12
2.399254e-08
8.391536e-08
2.386819e-12
2.391932e-08
8.429399e-08
2.565436e-12
2.382992e-08
8.475569e-08
2.749675e-12
2.372779e-08
8.531031e-08
2.937675e-12
2.361437e-08
8.59681e-08
3.127705e-12
2.348893e-08
8.67423e-08
3.318847e-12
2.334789e-08
8.765225e-08
3.512157e-12
2.318394e-08
8.872801e-08
3.712608e-12
2.29842e-08
9.001689e-08
3.932502e-12
2.272737e-08
9.159424e-08
4.197718e-12
2.237825e-08
9.362521e-08
4.557665e-12
2.183195e-08
5.067134e-12
2.100497e-08
9.632418e-08
1.996516e-08
-3.154133e-10
3.200408e-09
3.553044e-08
-6.871673e-10
7.972237e-09
4.763407e-08
-9.277556e-10
1.167461e-08
5.698081e-08
-1.100669e-09
1.460454e-08
6.413882e-08
-1.229366e-09
1.692205e-08
6.956284e-08
-1.325979e-09
1.875276e-08
7.361033e-08
-1.381348e-09
2.018474e-08
7.65876e-08
-1.415786e-09
2.12895e-08
7.873038e-08
-1.438474e-09
2.214676e-08
8.023028e-08
-1.451775e-09
2.280304e-08
8.125637e-08
-1.457234e-09
2.328241e-08
8.194495e-08
-1.456897e-09
2.361969e-08
8.240432e-08
-1.4523e-09
2.384442e-08
8.271929e-08
-1.44445e-09
2.39811e-08
8.295539e-08
-1.434076e-09
2.404974e-08
8.316257e-08
-1.421729e-09
2.406644e-08
8.337843e-08
-1.4078e-09
2.404399e-08
8.363078e-08
-1.392512e-09
2.399238e-08
8.393999e-08
-1.375971e-09
2.391915e-08
8.432101e-08
-1.358198e-09
2.382974e-08
8.47853e-08
-1.33914e-09
2.37276e-08
8.53427e-08
-1.318646e-09
2.361418e-08
8.600349e-08
-1.296404e-09
2.348875e-08
8.678085e-08
-1.271801e-09
2.334775e-08
8.769413e-08
-1.243647e-09
2.318388e-08
8.877328e-08
-1.209709e-09
2.298427e-08
9.006552e-08
-1.165968e-09
2.272767e-08
9.164592e-08
-1.105081e-09
2.237887e-08
9.367929e-08
-1.011812e-09
2.1833e-08
-8.513731e-10
2.100656e-08
9.637917e-08
1.952118e-08
3.013402e-09
3.430011e-08
7.383908e-09
4.551731e-08
1.070505e-08
5.396951e-08
1.329713e-08
6.025906e-08
1.533108e-08
6.486094e-08
1.692214e-08
6.817905e-08
1.815055e-08
7.051899e-08
1.909428e-08
7.212312e-08
1.980739e-08
7.318756e-08
2.033378e-08
7.387174e-08
2.070859e-08
7.430335e-08
2.096149e-08
7.457743e-08
2.112362e-08
7.476295e-08
2.122004e-08
7.491279e-08
2.126608e-08
7.507109e-08
2.126997e-08
7.527523e-08
2.123805e-08
7.555424e-08
2.117847e-08
7.593093e-08
2.109734e-08
7.642382e-08
2.099891e-08
7.704899e-08
2.088569e-08
7.782193e-08
2.075841e-08
7.875975e-08
2.061578e-08
7.988363e-08
2.045432e-08
8.122223e-08
2.026775e-08
8.281694e-08
2.004558e-08
8.473014e-08
1.977083e-08
8.70592e-08
1.941587e-08
8.99639e-08
1.893348e-08
1.824353e-08
9.3719e-08
1.952127e-08
3.158333e-10
3.012896e-09
3.430034e-08
6.882287e-10
7.382701e-09
4.551767e-08
9.293244e-10
1.070335e-08
5.396992e-08
1.102646e-09
1.32951e-08
6.02594e-08
1.231681e-09
1.532884e-08
6.486099e-08
1.328631e-09
1.691977e-08
6.817855e-08
1.384304e-09
1.814814e-08
7.05176e-08
1.419077e-09
1.909187e-08
7.212049e-08
1.442089e-09
1.980503e-08
7.318329e-08
1.45571e-09
2.033149e-08
7.386539e-08
1.461491e-09
2.07064e-08
7.429448e-08
1.461485e-09
2.095943e-08
7.45657e-08
1.457235e-09
2.112155e-08
7.474805e-08
1.449754e-09
2.121789e-08
7.489442e-08
1.439771e-09
2.126386e-08
7.504881e-08
1.427843e-09
2.126777e-08
7.524856e-08
1.414361e-09
2.123589e-08
7.552267e-08
1.399544e-09
2.117634e-08
7.589392e-08
1.383498e-09
2.109525e-08
7.638085e-08
1.366237e-09
2.099684e-08
7.699953e-08
1.347702e-09
2.088361e-08
7.776552e-08
1.327736e-09
2.075628e-08
7.869596e-08
1.306026e-09
2.061353e-08
7.981214e-08
1.281964e-09
2.045186e-08
8.114286e-08
1.254384e-09
2.02649e-08
8.272962e-08
1.221119e-09
2.004212e-08
8.463492e-08
1.178284e-09
1.976642e-08
8.695609e-08
1.118817e-09
1.941001e-08
8.985257e-08
1.028037e-09
1.892548e-08
8.723386e-10
1.823232e-08
9.359791e-08
1.996523e-08
8.198571e-13
3.199781e-09
3.553086e-08
1.845505e-12
7.970752e-09
4.763509e-08
2.572155e-12
1.167252e-08
5.698257e-08
3.151203e-12
1.460202e-08
6.414141e-08
3.626053e-12
1.691921e-08
6.956624e-08
4.109573e-12
1.874969e-08
7.361446e-08
4.557078e-12
2.018152e-08
7.659237e-08
4.988676e-12
2.128619e-08
7.873587e-08
5.413663e-12
2.214318e-08
8.023622e-08
5.843047e-12
2.279951e-08
8.126245e-08
6.286522e-12
2.327898e-08
8.195083e-08
6.751828e-12
2.361636e-08
8.240964e-08
7.245227e-12
2.384117e-08
8.272371e-08
7.771841e-12
2.397791e-08
8.295857e-08
8.336018e-12
2.404658e-08
8.316418e-08
8.941578e-12
2.406329e-08
8.33781e-08
9.591957e-12
2.404084e-08
8.362815e-08
1.028995e-11
2.39892e-08
8.393468e-08
1.103695e-11
2.391593e-08
8.431263e-08
1.183297e-11
2.382645e-08
8.477345e-08
1.267749e-11
2.372421e-08
8.532695e-08
1.357089e-11
2.361067e-08
8.598341e-08
1.45166e-11
2.348505e-08
8.675603e-08
1.552217e-11
2.334381e-08
8.76642e-08
1.660883e-11
2.317961e-08
8.873794e-08
1.782405e-11
2.297955e-08
9.002465e-08
1.92624e-11
2.272231e-08
9.159975e-08
2.110397e-11
2.237262e-08
9.362863e-08
2.367778e-11
2.182548e-08
2.739136e-11
2.099727e-08
9.63263e-08
1.996649e-08
-3.151863e-10
3.199513e-09
3.553483e-08
-6.865411e-10
7.970055e-09
4.764271e-08
-9.267919e-10
1.167148e-08
5.69946e-08
-1.099431e-09
1.460069e-08
6.415845e-08
-1.227897e-09
1.691767e-08
6.958886e-08
-1.324306e-09
1.874801e-08
7.364316e-08
-1.379493e-09
2.017975e-08
7.662748e-08
-1.413732e-09
2.12844e-08
7.877783e-08
-1.436223e-09
2.214129e-08
8.02853e-08
-1.449326e-09
2.27977e-08
8.13189e-08
-1.45458e-09
2.327727e-08
8.201493e-08
-1.454029e-09
2.361475e-08
8.248173e-08
-1.449213e-09
2.383966e-08
8.28042e-08
-1.441145e-09
2.397646e-08
8.304793e-08
-1.430553e-09
2.404515e-08
8.326301e-08
-1.417995e-09
2.406185e-08
8.34871e-08
-1.403855e-09
2.403936e-08
8.374808e-08
-1.388358e-09
2.398766e-08
8.406641e-08
-1.371615e-09
2.391432e-08
8.445712e-08
-1.353657e-09
2.382478e-08
8.493173e-08
-1.334438e-09
2.372251e-08
8.550011e-08
-1.313787e-09
2.360898e-08
8.617245e-08
-1.291276e-09
2.348345e-08
8.696188e-08
-1.266354e-09
2.334245e-08
8.78876e-08
-1.237804e-09
2.317869e-08
8.89793e-08
-1.203269e-09
2.29794e-08
9.028364e-08
-1.158461e-09
2.272338e-08
9.18747e-08
-1.095504e-09
2.237555e-08
9.391558e-08
-9.98122e-10
2.183091e-08
-8.294038e-10
2.100606e-08
9.661632e-08
1.952237e-08
3.012448e-09
3.430421e-08
7.381617e-09
4.552563e-08
1.070179e-08
5.398302e-08
1.329318e-08
6.027847e-08
1.532665e-08
6.488675e-08
1.691742e-08
6.821156e-08
1.814569e-08
7.05584e-08
1.908943e-08
7.216951e-08
1.980267e-08
7.324086e-08
2.032932e-08
7.393177e-08
2.070451e-08
7.436982e-08
2.095792e-08
7.465036e-08
2.112025e-08
7.484252e-08
2.121669e-08
7.499942e-08
2.126255e-08
7.516564e-08
2.126578e-08
7.537848e-08
2.123331e-08
7.566685e-08
2.117327e-08
7.605348e-08
2.109176e-08
7.655678e-08
2.099304e-08
7.719271e-08
2.087963e-08
7.797682e-08
2.07521e-08
7.892598e-08
2.060957e-08
8.006139e-08
2.044824e-08
8.141155e-08
2.026204e-08
8.301769e-08
2.004059e-08
8.494221e-08
1.976703e-08
8.728277e-08
1.941393e-08
9.020025e-08
1.893439e-08
1.824874e-08
9.397211e-08
1.952574e-08
3.174542e-10
3.00681e-09
3.431552e-08
6.925412e-10
7.367678e-09
4.554771e-08
9.35763e-10
1.068204e-08
5.401729e-08
1.110702e-09
1.326972e-08
6.032499e-08
1.24108e-09
1.530121e-08
6.494469e-08
1.338925e-09
1.689138e-08
6.827919e-08
1.395431e-09
1.812007e-08
7.063292e-08
1.431297e-09
1.906498e-08
7.224745e-08
1.455453e-09
1.978001e-08
7.331835e-08
1.470286e-09
2.030882e-08
7.400457e-08
1.477386e-09
2.068639e-08
7.44335e-08
1.478828e-09
2.094224e-08
7.470201e-08
1.476184e-09
2.11053e-08
7.48799e-08
1.47048e-09
2.120163e-08
7.502042e-08
1.462451e-09
2.124703e-08
7.516814e-08
1.452661e-09
2.124962e-08
7.536031e-08
1.441502e-09
2.121633e-08
7.562574e-08
1.4292e-09
2.115537e-08
7.598701e-08
1.41586e-09
2.107287e-08
7.646237e-08
1.401498e-09
2.097314e-08
7.706762e-08
1.386041e-09
2.085871e-08
7.781801e-08
1.369297e-09
2.073031e-08
7.873069e-08
1.350875e-09
2.058645e-08
7.982696e-08
1.330021e-09
2.042371e-08
8.113602e-08
1.305717e-09
2.023522e-08
8.269968e-08
1.276056e-09
2.001028e-08
8.458082e-08
1.23774e-09
1.973112e-08
8.687735e-08
1.184857e-09
1.936862e-08
8.974748e-08
1.105025e-09
1.887484e-08
9.693766e-10
1.816819e-08
9.345991e-08
1.996888e-08
5.548448e-12
3.193021e-09
3.554518e-08
1.220912e-11
7.954041e-09
4.766529e-08
1.673226e-11
1.164891e-08
5.703164e-08
2.02418e-11
1.457411e-08
6.421044e-08
2.309033e-11
1.688919e-08
6.965431e-08
2.561084e-11
1.871945e-08
7.371912e-08
2.792725e-11
2.01527e-08
7.671033e-08
3.018708e-11
2.12599e-08
7.886754e-08
3.241401e-11
2.211583e-08
8.038064e-08
3.46485e-11
2.277254e-08
8.141849e-08
3.698294e-11
2.325256e-08
8.21172e-08
3.948367e-11
2.359063e-08
8.258502e-08
4.219772e-11
2.381616e-08
8.290684e-08
4.51588e-11
2.39535e-08
8.314831e-08
4.839276e-11
2.402259e-08
8.335956e-08
5.192163e-11
2.403949e-08
8.35783e-08
5.576622e-11
2.401699e-08
8.383246e-08
5.994471e-11
2.39651e-08
8.414247e-08
6.446956e-11
2.389138e-08
8.452331e-08
6.934977e-11
2.380131e-08
8.49864e-08
7.45961e-11
2.369835e-08
8.554147e-08
8.023005e-11
2.3584e-08
8.619856e-08
8.629975e-11
2.345749e-08
8.697041e-08
9.290952e-11
2.331526e-08
8.787586e-08
1.002765e-10
2.314999e-08
8.894431e-08
1.08819e-10
2.294878e-08
9.02225e-08
1.192897e-10
2.269026e-08
9.178772e-08
1.330066e-10
2.233663e-08
9.380398e-08
1.524282e-10
2.178634e-08
1.806203e-10
2.095526e-08
9.648747e-08
1.997948e-08
-3.146807e-10
3.190751e-09
3.557823e-08
-6.843942e-10
7.947855e-09
4.772839e-08
-9.229781e-10
1.163955e-08
5.713042e-08
-1.094225e-09
1.456243e-08
6.434895e-08
-1.221541e-09
1.68761e-08
6.983561e-08
-1.316955e-09
1.87059e-08
7.394529e-08
-1.371448e-09
2.013969e-08
7.698171e-08
-1.404676e-09
2.124844e-08
7.918624e-08
-1.42633e-09
2.210422e-08
8.074918e-08
-1.438767e-09
2.276047e-08
8.1839e-08
-1.443495e-09
2.324066e-08
8.25918e-08
-1.442539e-09
2.357922e-08
8.311617e-08
-1.437458e-09
2.380529e-08
8.349753e-08
-1.429279e-09
2.394308e-08
8.380227e-08
-1.418754e-09
2.40124e-08
8.408137e-08
-1.40645e-09
2.402928e-08
8.437338e-08
-1.392744e-09
2.40065e-08
8.470709e-08
-1.377879e-09
2.395411e-08
8.510381e-08
-1.362006e-09
2.387976e-08
8.557938e-08
-1.345216e-09
2.378899e-08
8.614605e-08
-1.327525e-09
2.368545e-08
8.681426e-08
-1.308835e-09
2.357085e-08
8.759465e-08
-1.288822e-09
2.344473e-08
8.850024e-08
-1.266692e-09
2.330401e-08
8.954935e-08
-1.240725e-09
2.314189e-08
9.076939e-08
-1.207425e-09
2.294621e-08