/*--------------------------------*- C++ -*----------------------------------*\
| =========                 |                                                 |
| \\      /  F ield         | OpenFOAM: The Open Source CFD Toolbox           |
|  \\    /   O peration     | Version:  4.0                                   |
|   \\  /    A nd           | Web:      www.OpenFOAM.org                      |
|    \\/     M anipulation  |                                                 |
\*---------------------------------------------------------------------------*/
FoamFile
{
    version     2.0;
    format      ascii;
    class       surfaceScalarField;
    location    "120/air";
    object      phi;
}
// * * * * * * * * * * * * * * * * * * * * * * * * * * * * * * * * * * * * * //

dimensions      [1 0 -1 0 0 0 0];

internalField   nonuniform List<scalar> 
111448
(
2.890432e-07
1.135469e-09
2.810713e-07
3.821333e-07
1.742071e-09
4.764179e-07
3.981712e-07
1.319726e-09
5.538924e-07
3.897059e-07
1.221001e-09
5.784943e-07
3.758896e-07
1.695121e-09
5.833711e-07
3.623411e-07
1.914759e-09
5.828838e-07
3.504984e-07
1.962342e-09
5.811303e-07
3.390459e-07
1.949287e-09
5.807533e-07
3.280279e-07
1.877496e-09
5.803904e-07
3.175815e-07
1.776669e-09
5.799198e-07
3.07757e-07
1.662565e-09
5.794119e-07
2.985537e-07
1.534301e-09
5.78919e-07
2.900044e-07
1.42436e-09
5.78375e-07
2.820844e-07
1.319457e-09
5.778505e-07
2.747425e-07
1.191265e-09
5.774007e-07
2.679595e-07
1.045675e-09
5.769873e-07
2.617345e-07
8.902593e-10
5.765848e-07
2.560376e-07
7.335887e-10
5.762132e-07
2.508488e-07
5.703139e-10
5.758685e-07
2.461614e-07
3.919118e-10
5.755455e-07
2.419646e-07
1.904396e-10
5.752563e-07
2.382659e-07
-3.278042e-11
5.749814e-07
2.350328e-07
-2.790299e-10
5.747621e-07
2.322969e-07
-5.393483e-10
5.745252e-07
2.300547e-07
-8.356939e-10
5.743279e-07
2.283336e-07
-1.131425e-09
5.741025e-07
2.271696e-07
-1.499344e-09
5.739134e-07
2.266706e-07
-1.590962e-09
5.733399e-07
2.280726e-07
-8.10768e-10
5.706587e-07
6.343491e-09
5.500111e-07
2.429681e-07
2.898874e-07
-4.187785e-10
2.829168e-07
3.830758e-07
-4.182921e-10
4.80222e-07
3.984077e-07
-6.308895e-10
5.578687e-07
3.907272e-07
-4.884756e-10
5.806399e-07
3.772636e-07
-1.422469e-10
5.865509e-07
3.645868e-07
1.3632e-10
5.857053e-07
3.53052e-07
2.929257e-10
5.844541e-07
3.414002e-07
3.565052e-10
5.844946e-07
3.300603e-07
3.241439e-10
5.841433e-07
3.193185e-07
2.404023e-10
5.835281e-07
3.092086e-07
1.315863e-10
5.828909e-07
2.996525e-07
-1.359386e-11
5.82354e-07
2.906442e-07
-1.617813e-10
5.818445e-07
2.823157e-07
-3.082699e-10
5.812062e-07
2.745935e-07
-4.977788e-10
5.806612e-07
2.673729e-07
-7.088962e-10
5.802252e-07
2.606324e-07
-9.470309e-10
5.798277e-07
2.544055e-07
-1.195831e-09
5.794064e-07
2.487261e-07
-1.463369e-09
5.789631e-07
2.435856e-07
-1.754539e-09
5.78537e-07
2.389284e-07
-2.075978e-09
5.781735e-07
2.347214e-07
-2.433485e-09
5.778578e-07
2.3098e-07
-2.832284e-09
5.775446e-07
2.277407e-07
-3.269587e-09
5.772195e-07
2.250258e-07
-3.754829e-09
5.76884e-07
2.228396e-07
-4.265735e-09
5.765705e-07
2.211434e-07
-4.768808e-09
5.762157e-07
2.193506e-07
-4.787683e-09
5.762395e-07
2.214278e-07
-3.156526e-09
5.715186e-07
5.901772e-09
5.532907e-07
2.398288e-07
2.890909e-07
-1.26562e-09
2.830059e-07
3.813245e-07
-1.754447e-09
4.803526e-07
3.962399e-07
-1.83511e-09
5.575388e-07
3.88301e-07
-1.74984e-09
5.804502e-07
3.759973e-07
-1.542118e-09
5.849536e-07
3.632785e-07
-1.320476e-09
5.854256e-07
3.508925e-07
-1.093835e-09
5.850228e-07
3.389454e-07
-9.045145e-10
5.844581e-07
3.273493e-07
-7.69088e-10
5.839394e-07
3.161254e-07
-6.507324e-10
5.83365e-07
3.052819e-07
-5.084048e-10
5.827336e-07
2.94724e-07
-3.399e-10
5.821341e-07
2.843895e-07
-1.503947e-10
5.815732e-07
2.742873e-07
7.284195e-11
5.809711e-07
2.64226e-07
3.114639e-10
5.80502e-07
2.541342e-07
5.901889e-10
5.800427e-07
2.439239e-07
9.057789e-10
5.796075e-07
2.335151e-07
1.267841e-09
5.791951e-07
2.227893e-07
1.681958e-09
5.788305e-07
2.116312e-07
2.163399e-09
5.784902e-07
1.999581e-07
2.729627e-09
5.781175e-07
1.876544e-07
3.391243e-09
5.77729e-07
1.745194e-07
4.15326e-09
5.773994e-07
1.603799e-07
5.029644e-09
5.770902e-07
1.450188e-07
6.043891e-09
5.768124e-07
1.28269e-07
7.209512e-09
5.765245e-07
1.099543e-07
8.647135e-09
5.761488e-07
9.157147e-08
1.062405e-08
5.742211e-07
8.229544e-08
1.457015e-08
5.627993e-07
1.962619e-08
5.226094e-07
1.172116e-07
2.894145e-07
2.805698e-07
3.832044e-07
4.757057e-07
3.952908e-07
5.573285e-07
3.852245e-07
5.795665e-07
3.731805e-07
5.817518e-07
3.619462e-07
5.811638e-07
3.507541e-07
5.813483e-07
3.405989e-07
5.805007e-07
3.312463e-07
5.798336e-07
3.225286e-07
5.793169e-07
3.144501e-07
5.788202e-07
3.071766e-07
5.781835e-07
3.007088e-07
5.775675e-07
2.950138e-07
5.770178e-07
2.900496e-07
5.765257e-07
2.858457e-07
5.76044e-07
2.824733e-07
5.755282e-07
2.799264e-07
5.750647e-07
2.782136e-07
5.746448e-07
2.774162e-07
5.742108e-07
2.776491e-07
5.737468e-07
2.790258e-07
5.732644e-07
2.816488e-07
5.727803e-07
2.856312e-07
5.722972e-07
2.911179e-07
5.718072e-07
2.982462e-07
5.713312e-07
3.073627e-07
5.707806e-07
3.188668e-07
5.7037e-07
3.362264e-07
5.684605e-07
5.516741e-07
3.754285e-07
2.934252e-07
1.234155e-09
2.765907e-07
3.927442e-07
1.820462e-09
4.701106e-07
4.096901e-07
1.757645e-09
5.525464e-07
4.020289e-07
1.802229e-09
5.77109e-07
3.916125e-07
1.819024e-09
5.798473e-07
3.814131e-07
1.835823e-09
5.796136e-07
3.721137e-07
1.825068e-09
5.787243e-07
3.636669e-07
1.791482e-09
5.779053e-07
3.558513e-07
1.752889e-09
5.773127e-07
3.486764e-07
1.707484e-09
5.767174e-07
3.421501e-07
1.654575e-09
5.761218e-07
3.362548e-07
1.577233e-09
5.75568e-07
3.310727e-07
1.477496e-09
5.749546e-07
3.266954e-07
1.365426e-09
5.742619e-07
3.231397e-07
1.244324e-09
5.735614e-07
3.203565e-07
1.113913e-09
5.729192e-07
3.183145e-07
9.713611e-10
5.723207e-07
3.170135e-07
8.112315e-10
5.717397e-07
3.164695e-07
6.335429e-10
5.711605e-07
3.16704e-07
4.370438e-10
5.705785e-07
3.177377e-07
2.190752e-10
5.699972e-07
3.19589e-07
-2.399487e-11
5.694227e-07
3.222834e-07
-2.985149e-10
5.688541e-07
3.25851e-07
-6.053463e-10
5.682877e-07
3.303526e-07
-9.634092e-10
5.677118e-07
3.357945e-07
-1.349849e-09
5.67158e-07
3.423543e-07
-1.84686e-09
5.66537e-07
3.498609e-07
-2.281284e-09
5.660248e-07
3.591091e-07
-2.46748e-09
5.644692e-07
-1.105811e-10
5.578299e-07
3.726398e-07
2.935844e-07
6.629046e-11
2.788335e-07
3.920758e-07
7.689625e-11
4.745021e-07
4.117987e-07
1.11234e-11
5.532736e-07
4.056249e-07
-1.008756e-10
5.79327e-07
3.960421e-07
-1.139787e-10
5.827658e-07
3.865969e-07
-9.483291e-11
5.826259e-07
3.78147e-07
-6.113808e-11
5.81586e-07
3.695906e-07
-5.009128e-11
5.81648e-07
3.617166e-07
-7.348526e-11
5.809504e-07
3.542512e-07
-1.428842e-10
5.805657e-07
3.475098e-07
-2.328416e-10
5.798788e-07
3.413876e-07
-3.036449e-10
5.792531e-07
3.358672e-07
-3.792613e-10
5.786271e-07
3.309952e-07
-4.484317e-10
5.779359e-07
3.26722e-07
-5.252788e-10
5.772927e-07
3.229994e-07
-6.189046e-10
5.767054e-07
3.198888e-07
-7.303316e-10
5.760623e-07
3.173489e-07
-8.62117e-10
5.754633e-07
3.153632e-07
-1.019268e-09
5.748885e-07
3.139494e-07
-1.200924e-09
5.743017e-07
3.131259e-07
-1.409901e-09
5.737025e-07
3.129085e-07
-1.650356e-09
5.730938e-07
3.133053e-07
-1.926849e-09
5.724815e-07
3.143258e-07
-2.23988e-09
5.71864e-07
3.159869e-07
-2.59882e-09
5.712244e-07
3.182518e-07
-2.988371e-09
5.706236e-07
3.211955e-07
-3.44927e-09
5.699086e-07
3.242839e-07
-3.584312e-09
5.694646e-07
3.297459e-07
-3.984122e-09
5.673047e-07
-2.992059e-09
5.511341e-07
3.527432e-07
2.937089e-07
-1.278554e-09
2.788859e-07
3.923577e-07
-1.894409e-09
4.745726e-07
4.132294e-07
-1.825535e-09
5.522149e-07
4.071941e-07
-1.699129e-09
5.788836e-07
3.970592e-07
-1.675339e-09
5.829463e-07
3.868123e-07
-1.604739e-09
5.830068e-07
3.771221e-07
-1.494675e-09
5.823737e-07
3.680176e-07
-1.360926e-09
5.816653e-07
3.594118e-07
-1.224711e-09
5.810071e-07
3.512109e-07
-1.083326e-09
5.803913e-07
3.433069e-07
-9.539596e-10
5.798751e-07
3.359004e-07
-8.102931e-10
5.791632e-07
3.287262e-07
-6.592781e-10
5.787042e-07
3.219567e-07
-4.83064e-10
5.780542e-07
3.155755e-07
-2.730259e-10
5.77379e-07
3.094911e-07
-2.58736e-11
5.767413e-07
3.036285e-07
2.60083e-10
5.761222e-07
2.979005e-07
5.862852e-10
5.755297e-07
2.921999e-07
9.553485e-10
5.749759e-07
2.864542e-07
1.373397e-09
5.744214e-07
2.805976e-07
1.849965e-09
5.738467e-07
2.745256e-07
2.392364e-09
5.732793e-07
2.681073e-07
3.009151e-09
5.727323e-07
2.612036e-07
3.709119e-09
5.722047e-07
2.536687e-07
4.511881e-09
5.716742e-07
2.453319e-07
5.422431e-09
5.71176e-07
2.360726e-07
6.495512e-09
5.705645e-07
2.263373e-07
7.434069e-09
5.699669e-07
2.190738e-07
9.004086e-09
5.655253e-07
6.935483e-09
5.439864e-07
2.364099e-07
2.935005e-07
2.764709e-07
3.929903e-07
4.698659e-07
4.101833e-07
5.522314e-07
4.028038e-07
5.769304e-07
3.933506e-07
5.790278e-07
3.845213e-07
5.784746e-07
3.754553e-07
5.788213e-07
3.673235e-07
5.780209e-07
3.600637e-07
5.772851e-07
3.535759e-07
5.766544e-07
3.479239e-07
5.759481e-07
3.431026e-07
5.75261e-07
3.390896e-07
5.746037e-07
3.359018e-07
5.739548e-07
3.335668e-07
5.733119e-07
3.321312e-07
5.726597e-07
3.316354e-07
5.720059e-07
3.321058e-07
5.713659e-07
3.335782e-07
5.707329e-07
3.361092e-07
5.700924e-07
3.39756e-07
5.694531e-07
3.445862e-07
5.688122e-07
3.506819e-07
5.681634e-07
3.581351e-07
5.67506e-07
3.670726e-07
5.668244e-07
3.775887e-07
5.661563e-07
3.899478e-07
5.653864e-07
4.038158e-07
5.648161e-07
4.201969e-07
5.63873e-07
5.498769e-07
4.485054e-07
2.941483e-07
1.489667e-09
2.75612e-07
3.946806e-07
2.164291e-09
4.685534e-07
4.183529e-07
2.06388e-09
5.455138e-07
4.115808e-07
2.238732e-09
5.757834e-07
4.004818e-07
2.28388e-09
5.800651e-07
3.902349e-07
2.233729e-09
5.792632e-07
3.814437e-07
2.148461e-09
5.778928e-07
3.736393e-07
2.062409e-09
5.769919e-07
3.663251e-07
1.965483e-09
5.765988e-07
3.598811e-07
1.835441e-09
5.758586e-07
3.543398e-07
1.687255e-09
5.75104e-07
3.497098e-07
1.541978e-09
5.74338e-07
3.459478e-07
1.400622e-09
5.736114e-07
3.430256e-07
1.249664e-09
5.729225e-07
3.409566e-07
1.084309e-09
5.722348e-07
3.397454e-07
9.028825e-10
5.715582e-07
3.394046e-07
7.029644e-10
5.708878e-07
3.399514e-07
4.805325e-10
5.702227e-07
3.414168e-07
2.333383e-10
5.695513e-07
3.438281e-07
-4.017134e-11
5.688788e-07
3.472321e-07
-3.427747e-10
5.681888e-07
3.516736e-07
-6.782616e-10
5.674868e-07
3.571972e-07
-1.054685e-09
5.667811e-07
3.638487e-07
-1.477667e-09
5.660762e-07
3.717107e-07
-1.967435e-09
5.653555e-07
3.808227e-07
-2.514111e-09
5.646521e-07
3.91367e-07
-3.178905e-09
5.638845e-07
4.032842e-07
-3.866575e-09
5.631994e-07
4.163903e-07
-4.318231e-09
5.624621e-07
-3.65859e-09
5.588243e-07
4.324746e-07
2.954382e-07
-1.392383e-10
2.774407e-07
3.966075e-07
-2.023413e-10
4.724473e-07
4.149534e-07
-2.181383e-10
5.551862e-07
4.082179e-07
-2.679749e-10
5.804922e-07
3.980233e-07
-2.576284e-10
5.839861e-07
3.888081e-07
-2.265641e-10
5.829255e-07
3.808298e-07
-2.034255e-10
5.815801e-07
3.737787e-07
-1.853325e-10
5.805489e-07
3.67372e-07
-1.707519e-10
5.797929e-07
3.614779e-07
-1.62036e-10
5.791416e-07
3.56059e-07
-1.539708e-10
5.785102e-07
3.509248e-07
-1.495241e-10
5.780757e-07
3.463789e-07
-1.716097e-10
5.773681e-07
3.424684e-07
-2.054285e-10
5.766155e-07
3.391193e-07
-2.409941e-10
5.759244e-07
3.36291e-07
-2.761882e-10
5.752574e-07
3.339776e-07
-3.123339e-10
5.745787e-07
3.321472e-07
-3.518528e-10
5.739128e-07
3.307554e-07
-3.989305e-10
5.732741e-07
3.297886e-07
-4.565224e-10
5.726331e-07
3.29245e-07
-5.264037e-10
5.719772e-07
3.291199e-07
-6.102632e-10
5.713071e-07
3.293976e-07
-7.101068e-10
5.706277e-07
3.30057e-07
-8.240057e-10
5.699369e-07
3.310709e-07
-9.568701e-10
5.692256e-07
3.323418e-07
-1.098576e-09
5.685636e-07
3.339188e-07
-1.272389e-09
5.677665e-07
3.35294e-07
-1.291467e-09
5.672997e-07
3.38614e-07
-1.451132e-09
5.650629e-07
-1.304292e-09
5.4912e-07
3.583897e-07
2.94888e-07
-1.339594e-09
2.775624e-07
3.953266e-07
-1.98673e-09
4.725957e-07
4.150472e-07
-1.826029e-09
5.531373e-07
4.096877e-07
-2.038761e-09
5.783803e-07
3.997052e-07
-2.379175e-09
5.83354e-07
3.90316e-07
-2.368519e-09
5.827812e-07
3.821176e-07
-2.265056e-09
5.8151e-07
3.748025e-07
-2.120023e-09
5.804999e-07
3.680531e-07
-1.959958e-09
5.797886e-07
3.617988e-07
-1.798175e-09
5.791404e-07
3.558421e-07
-1.643396e-09
5.786962e-07
3.504816e-07
-1.474284e-09
5.779352e-07
3.456812e-07
-1.29033e-09
5.771692e-07
3.412933e-07
-1.094274e-09
5.765267e-07
3.372831e-07
-8.825499e-10
5.759018e-07
3.336428e-07
-6.525996e-10
5.752666e-07
3.30377e-07
-4.016123e-10
5.746051e-07
3.274816e-07
-1.232526e-10
5.739168e-07
3.249111e-07
1.881523e-10
5.732334e-07
3.22608e-07
5.366138e-10
5.7256e-07
3.205213e-07
9.264695e-10
5.718838e-07
3.185863e-07
1.363721e-09
5.712111e-07
3.1672e-07
1.856637e-09
5.705496e-07
3.148269e-07
2.411453e-09
5.699076e-07
3.128195e-07
3.044344e-09
5.692562e-07
3.105572e-07
3.756015e-09
5.686577e-07
3.080059e-07
4.5921e-09
5.679368e-07
3.050414e-07
5.323209e-09
5.675998e-07
3.042323e-07
5.984826e-09
5.646232e-07
6.198148e-09
5.476206e-07
3.203593e-07
2.942602e-07
2.756502e-07
3.949737e-07
4.685498e-07
4.190405e-07
5.453572e-07
4.146027e-07
5.73649e-07
4.037537e-07
5.797198e-07
3.935213e-07
5.791139e-07
3.842335e-07
5.782728e-07
3.758881e-07
5.774753e-07
3.686961e-07
5.764821e-07
3.623646e-07
5.757833e-07
3.568556e-07
5.751156e-07
3.523202e-07
5.743111e-07
3.487293e-07
5.735506e-07
3.459965e-07
5.728885e-07
3.441277e-07
5.722363e-07
3.431881e-07
5.71537e-07
3.431901e-07
5.708464e-07
3.441556e-07
5.701613e-07
3.461249e-07
5.694688e-07
3.491526e-07
5.687589e-07
3.532891e-07
5.680399e-07
3.585887e-07
5.673142e-07
3.651129e-07
5.665824e-07
3.729283e-07
5.658461e-07
3.821271e-07
5.650956e-07
3.927853e-07
5.643477e-07
4.050707e-07
5.635567e-07
4.188333e-07
5.628106e-07
4.337647e-07
5.623034e-07
5.591325e-07
4.520803e-07
2.94543e-07
1.464695e-09
2.752423e-07
3.956556e-07
2.137009e-09
4.680004e-07
4.195019e-07
2.058033e-09
5.453456e-07
4.147079e-07
2.1314e-09
5.739126e-07
4.034307e-07
2.400846e-09
5.801264e-07
3.928051e-07
2.328964e-09
5.795466e-07
3.837514e-07
2.172615e-09
5.781311e-07
3.759162e-07
1.981282e-09
5.771039e-07
3.69211e-07
1.788471e-09
5.761667e-07
3.634439e-07
1.617533e-09
5.753996e-07
3.585027e-07
1.476207e-09
5.74715e-07
3.54366e-07
1.340941e-09
5.740457e-07
3.510126e-07
1.189963e-09
5.734134e-07
3.485247e-07
1.024212e-09
5.727137e-07
3.469522e-07
8.472532e-10
5.719752e-07
3.462942e-07
6.550221e-10
5.71253e-07
3.46564e-07
4.414318e-10
5.705388e-07
3.477854e-07
2.012752e-10
5.698273e-07
3.499892e-07
-6.911309e-11
5.691153e-07
3.53219e-07
-3.722333e-10
5.683925e-07
3.575154e-07
-7.119623e-10
5.676655e-07
3.629244e-07
-1.093968e-09
5.669349e-07
3.695021e-07
-1.526507e-09
5.661989e-07
3.773124e-07
-2.017722e-09
5.654573e-07
3.864449e-07
-2.583164e-09
5.647008e-07
3.969743e-07
-3.224573e-09
5.639451e-07
4.090405e-07
-3.97349e-09
5.631573e-07
4.22662e-07
-4.763385e-09
5.623919e-07
4.372801e-07
-5.397908e-09
5.620298e-07
-5.236254e-09
5.585212e-07
4.552452e-07
2.95902e-07
3.455968e-11
2.767782e-07
3.976917e-07
5.433086e-11
4.71543e-07
4.167832e-07
5.341495e-11
5.541631e-07
4.117626e-07
-9.457554e-12
5.784114e-07
4.03796e-07
-1.162778e-10
5.817338e-07
3.955975e-07
-1.170714e-10
5.818945e-07
3.878812e-07
-3.822386e-11
5.811772e-07
3.807967e-07
-1.04962e-12
5.803168e-07
3.741741e-07
3.791532e-11
5.796231e-07
3.679166e-07
5.841197e-11
5.790667e-07
3.620556e-07
5.640986e-11
5.785308e-07
3.567935e-07
5.208566e-11
5.778009e-07
3.521499e-07
5.616366e-11
5.770274e-07
3.479591e-07
6.229581e-11
5.764027e-07
3.442459e-07
6.656952e-11
5.757439e-07
3.410505e-07
5.827695e-11
5.750421e-07
3.383715e-07
4.05764e-11
5.743299e-07
3.361749e-07
2.156045e-11
5.736263e-07
3.344112e-07
5.547222e-12
5.729391e-07
3.330228e-07
-7.416408e-12
5.722735e-07
3.319744e-07
-1.945205e-11
5.716059e-07
3.312301e-07
-3.205333e-11
5.709324e-07
3.30753e-07
-4.595272e-11
5.702465e-07
3.304949e-07
-6.06267e-11
5.69551e-07
3.304154e-07
-7.439704e-11
5.688207e-07
3.303689e-07
-8.554612e-11
5.681575e-07
3.304303e-07
-9.468636e-11
5.673098e-07
3.30089e-07
-9.960105e-11
5.669275e-07
3.316801e-07
-1.01092e-10
5.64362e-07
-8.396914e-11
5.482262e-07
3.495516e-07
2.957594e-07
-1.511036e-09
2.770362e-07
3.973753e-07
-2.192019e-09
4.718804e-07
4.161591e-07
-2.09877e-09
5.546184e-07
4.108392e-07
-1.971936e-09
5.785324e-07
4.014359e-07
-2.204132e-09
5.827412e-07
3.925433e-07
-2.15194e-09
5.821775e-07
3.84622e-07
-2.128878e-09
5.812619e-07
3.776364e-07
-2.016546e-09
5.802511e-07
3.713202e-07
-1.899933e-09
5.79504e-07
3.655556e-07
-1.769377e-09
5.788425e-07
3.601286e-07
-1.627532e-09
5.783609e-07
3.551555e-07
-1.480201e-09
5.777554e-07
3.508422e-07
-1.320274e-09
5.769398e-07
3.469246e-07
-1.155252e-09
5.763851e-07
3.436079e-07
-9.784039e-10
5.756117e-07
3.40882e-07
-7.740861e-10
5.748083e-07
3.386024e-07
-5.423888e-10
5.741126e-07
3.366972e-07
-2.883415e-10
5.734651e-07
3.351452e-07
-1.114688e-11
5.728187e-07
3.339384e-07
2.945805e-10
5.721548e-07
3.330587e-07
6.366121e-10
5.714737e-07
3.324671e-07
1.022704e-09
5.707868e-07
3.321179e-07
1.461904e-09
5.700913e-07
3.31929e-07
1.960826e-09
5.694175e-07
3.318401e-07
2.533132e-09
5.687314e-07
3.317224e-07
3.178075e-09
5.68104e-07
3.316392e-07
3.930005e-09
5.673085e-07
3.311187e-07
4.721437e-09
5.669495e-07
3.325008e-07
5.347924e-09
5.644189e-07
5.197411e-09
5.482372e-07
3.502322e-07
2.944743e-07
2.752647e-07
3.955186e-07
4.680137e-07
4.193183e-07
5.453515e-07
4.145726e-07
5.740237e-07
4.035778e-07
5.800407e-07
3.934989e-07
5.791769e-07
3.853121e-07
5.773079e-07
3.776753e-07
5.768703e-07
3.708824e-07
5.761429e-07
3.648246e-07
5.755385e-07
3.596027e-07
5.748443e-07
3.552358e-07
5.741368e-07
3.517696e-07
5.733959e-07
3.492291e-07
5.726353e-07
3.475564e-07
5.719442e-07
3.46774e-07
5.712584e-07
3.469758e-07
5.705058e-07
3.481784e-07
5.69759e-07
3.503802e-07
5.690371e-07
3.535925e-07
5.683323e-07
3.578459e-07
5.676332e-07
3.63188e-07
5.669306e-07
3.696816e-07
5.662183e-07
3.773968e-07
5.654956e-07
3.864271e-07
5.647529e-07
3.968475e-07
5.640076e-07
4.088038e-07
5.632238e-07
4.223114e-07
5.624638e-07
4.3681e-07
5.620993e-07
5.5858e-07
4.546774e-07
2.940879e-07
1.459197e-09
2.757029e-07
3.945796e-07
2.156545e-09
4.686018e-07
4.186117e-07
1.809917e-09
5.45408e-07
4.115851e-07
2.120818e-09
5.761557e-07
3.999929e-07
2.060776e-09
5.807814e-07
3.898292e-07
1.997133e-09
5.794166e-07
3.80877e-07
1.956286e-09
5.782459e-07
3.729951e-07
1.847173e-09
5.772848e-07
3.660868e-07
1.72883e-09
5.764294e-07
3.599698e-07
1.582852e-09
5.757842e-07
3.547399e-07
1.416805e-09
5.750631e-07
3.504327e-07
1.238401e-09
5.743187e-07
3.469964e-07
1.041326e-09
5.73645e-07
3.444984e-07
8.323913e-10
5.729156e-07
3.429071e-07
6.221655e-10
5.722192e-07
3.421975e-07
4.089337e-10
5.715507e-07
3.423907e-07
1.813358e-10
5.708755e-07
3.43527e-07
-7.046597e-11
5.701842e-07
3.456475e-07
-3.540642e-10
5.694835e-07
3.487981e-07
-6.760411e-10
5.687754e-07
3.530376e-07
-1.042298e-09
5.680529e-07
3.584221e-07
-1.45849e-09
5.67324e-07
3.65015e-07
-1.932847e-09
5.665899e-07
3.728863e-07
-2.472743e-09
5.658514e-07
3.821322e-07
-3.094072e-09
5.650982e-07
3.928344e-07
-3.799216e-09
5.64347e-07
4.051629e-07
-4.630521e-09
5.63552e-07
4.190725e-07
-5.453626e-09
5.62794e-07
4.340844e-07
-6.160515e-09
5.623987e-07
-6.308698e-09
5.588649e-07
4.527781e-07
2.947426e-07
2.99373e-10
2.776672e-07
3.949617e-07
4.204689e-10
4.727669e-07
4.175429e-07
3.802478e-10
5.500985e-07
4.122796e-07
3.651799e-10
5.782689e-07
4.026395e-07
3.809806e-10
5.825699e-07
3.933734e-07
3.032248e-10
5.8221e-07
3.849461e-07
1.855778e-10
5.814481e-07
3.772833e-07
1.098495e-10
5.806501e-07
3.701965e-07
4.449892e-11
5.800211e-07
3.637572e-07
3.490026e-12
5.792687e-07
3.578755e-07
-1.357059e-11
5.785621e-07
3.524872e-07
9.893591e-13
5.778757e-07
3.475879e-07
5.48462e-11
5.771359e-07
3.430049e-07
1.311036e-10
5.765342e-07
3.386589e-07
2.0499e-10
5.760132e-07
3.345869e-07
2.667975e-10
5.754642e-07
3.30875e-07
3.116058e-10
5.748316e-07
3.275323e-07
3.472273e-10
5.74175e-07
3.245451e-07
3.837193e-10
5.734994e-07
3.218725e-07
4.281638e-10
5.728183e-07
3.194523e-07
4.846945e-10
5.721433e-07
3.172204e-07
5.546876e-10
5.714687e-07
3.151052e-07
6.393977e-10
5.707929e-07
3.130142e-07
7.391913e-10
5.701291e-07
3.108666e-07
8.560962e-10
5.694475e-07
3.08503e-07
9.891877e-10
5.688251e-07
3.059312e-07
1.144226e-09
5.680471e-07
3.028063e-07
1.255807e-09
5.676655e-07
3.017442e-07
1.415987e-09
5.647356e-07
1.186726e-09
5.47004e-07
3.184947e-07
2.957987e-07
-1.485487e-09
2.772361e-07
3.974102e-07
-2.146353e-09
4.722054e-07
4.161169e-07
-2.082352e-09
5.550059e-07
4.107447e-07
-2.013753e-09
5.790011e-07
4.018538e-07
-2.338512e-09
5.828604e-07
3.933926e-07
-2.292693e-09
5.823071e-07
3.861443e-07
-2.173862e-09
5.808578e-07
3.789077e-07
-2.024603e-09
5.806211e-07
3.721593e-07
-1.855411e-09
5.798982e-07
3.658281e-07
-1.685097e-09
5.792699e-07
3.599628e-07
-1.520589e-09
5.786223e-07
3.545045e-07
-1.371456e-09
5.780807e-07
3.495467e-07
-1.237918e-09
5.775006e-07
3.453136e-07
-1.103496e-09
5.767177e-07
3.416371e-07
-9.608698e-10
5.760923e-07
3.385588e-07
-8.02747e-10
5.753979e-07
3.361265e-07
-6.184234e-10
5.746123e-07
3.342185e-07
-4.034365e-10
5.739086e-07
3.327561e-07
-1.58432e-10
5.732546e-07
3.317154e-07
1.157524e-10
5.72603e-07
3.310875e-07
4.202949e-10
5.719423e-07
3.308579e-07
7.593817e-10
5.712749e-07
3.310037e-07
1.140878e-09
5.706027e-07
3.314875e-07
1.571025e-09
5.699344e-07
3.322837e-07
2.065492e-09
5.692444e-07
3.332774e-07
2.621878e-09
5.686236e-07
3.345607e-07
3.284939e-09
5.67826e-07
3.355983e-07
3.988396e-09
5.674798e-07
3.387203e-07
4.439426e-09
5.651046e-07
3.765783e-09
5.494164e-07
3.579749e-07
2.940972e-07
2.756673e-07
3.945627e-07
4.686381e-07
4.177428e-07
5.459876e-07
4.121375e-07
5.748415e-07
4.007478e-07
5.803012e-07
3.903554e-07
5.793497e-07
3.810571e-07
5.783744e-07
3.727767e-07
5.775058e-07
3.655451e-07
5.766262e-07
3.592868e-07
5.758232e-07
3.539263e-07
5.750899e-07
3.493968e-07
5.744081e-07
3.45666e-07
5.737429e-07
3.428033e-07
5.730092e-07
3.407721e-07
5.723203e-07
3.39578e-07
5.716414e-07
3.392359e-07
5.709737e-07
3.397767e-07
5.703058e-07
3.412174e-07
5.696509e-07
3.436306e-07
5.689526e-07
3.47054e-07
5.682469e-07
3.515176e-07
5.675458e-07
3.570615e-07
5.668469e-07
3.637316e-07
5.661509e-07
3.71609e-07
5.654381e-07
3.807392e-07
5.647417e-07
3.912956e-07
5.639785e-07
4.032493e-07
5.632847e-07
4.162966e-07
5.626421e-07
5.586459e-07
4.326666e-07
2.936553e-07
1.171143e-09
2.764235e-07
3.933445e-07
1.749046e-09
4.698118e-07
4.10608e-07
1.806293e-09
5.521802e-07
4.030717e-07
1.869721e-09
5.769165e-07
3.934605e-07
1.834635e-09
5.790265e-07
3.844685e-07
1.802325e-09
5.784398e-07
3.751993e-07
1.74273e-09
5.787764e-07
3.669522e-07
1.627708e-09
5.778694e-07
3.594118e-07
1.524646e-09
5.772658e-07
3.525695e-07
1.377173e-09
5.767151e-07
3.465816e-07
1.207005e-09
5.760308e-07
3.414674e-07
1.002385e-09
5.753619e-07
3.372784e-07
7.70632e-10
5.746684e-07
3.341085e-07
5.200074e-10
5.738998e-07
3.319243e-07
2.549677e-10
5.731792e-07
3.306609e-07
-1.733106e-11
5.725308e-07
3.303185e-07
-3.046144e-10
5.718969e-07
3.30937e-07
-6.256733e-10
5.712572e-07
3.325572e-07
-9.891216e-10
5.706189e-07
3.352214e-07
-1.400933e-09
5.699867e-07
3.389841e-07
-1.868704e-09
5.69356e-07
3.439141e-07
-2.401227e-09
5.687213e-07
3.500954e-07
-3.009336e-09
5.680781e-07
3.576222e-07
-3.702947e-09
5.674261e-07
3.666227e-07
-4.500915e-09
5.667504e-07
3.771932e-07
-5.407135e-09
5.660867e-07
3.895914e-07
-6.472712e-09
5.653245e-07
4.035104e-07
-7.426801e-09
5.647577e-07
4.199819e-07
-8.999152e-09
5.637777e-07
-6.944156e-09
5.501928e-07
4.479832e-07
2.933406e-07
1.797664e-10
2.789007e-07
3.915204e-07
2.222811e-10
4.74597e-07
4.092162e-07
2.078718e-10
5.551526e-07
4.016022e-07
1.089287e-10
5.806248e-07
3.90676e-07
2.252415e-11
5.839883e-07
3.802438e-07
-1.346661e-11
5.834981e-07
3.71373e-07
-1.230815e-10
5.819865e-07
3.630184e-07
-1.30978e-10
5.813633e-07
3.552203e-07
-1.336101e-10
5.807064e-07
3.477065e-07
-1.205367e-10
5.802615e-07
3.405762e-07
-6.380709e-11
5.796511e-07
3.338407e-07
1.87886e-11
5.789691e-07
3.274476e-07
1.349857e-10
5.782787e-07
3.21247e-07
2.691268e-10
5.777015e-07
3.152491e-07
4.14177e-10
5.770887e-07
3.093375e-07
5.676887e-10
5.765766e-07
3.034571e-07
7.187122e-10
5.761071e-07
2.976938e-07
8.669527e-10
5.755206e-07
2.919914e-07
1.027433e-09
5.749358e-07
2.862594e-07
1.208318e-09
5.743727e-07
2.804118e-07
1.414513e-09
5.738144e-07
2.74359e-07
1.649682e-09
5.732519e-07
2.679895e-07
1.919105e-09
5.726911e-07
2.611632e-07
2.225267e-09
5.72148e-07
2.537319e-07
2.579406e-09
5.71601e-07
2.454993e-07
2.96695e-09
5.711085e-07
2.363505e-07
3.42873e-09
5.704973e-07
2.266462e-07
3.591906e-09
5.699356e-07
2.194057e-07
3.995479e-09
5.65496e-07
2.985388e-09
5.439163e-07
2.368099e-07
2.940467e-07
-1.412098e-09
2.787952e-07
3.93142e-07
-2.085025e-09
4.74462e-07
4.138531e-07
-1.973984e-09
5.527207e-07
4.088251e-07
-1.817203e-09
5.782041e-07
3.976658e-07
-1.879049e-09
5.843109e-07
3.870666e-07
-1.981486e-09
5.838172e-07
3.781124e-07
-1.977292e-09
5.820584e-07
3.694489e-07
-1.939699e-09
5.817222e-07
3.614365e-07
-1.882612e-09
5.810114e-07
3.540398e-07
-1.788515e-09
5.803146e-07
3.471056e-07
-1.682539e-09
5.79803e-07
3.407358e-07
-1.587233e-09
5.792258e-07
3.350344e-07
-1.498965e-09
5.785853e-07
3.300159e-07
-1.406038e-09
5.779437e-07
3.256405e-07
-1.301806e-09
5.773414e-07
3.219594e-07
-1.183483e-09
5.766823e-07
3.189485e-07
-1.048065e-09
5.760277e-07
3.165594e-07
-8.937142e-10
5.753998e-07
3.147661e-07
-7.196272e-10
5.747903e-07
3.135615e-07
-5.249211e-10
5.741879e-07
3.129468e-07
-3.07899e-10
5.735871e-07
3.129265e-07
-6.66902e-11
5.729867e-07
3.135087e-07
2.041196e-10
5.723827e-07
3.147041e-07
5.054757e-10
5.717745e-07
3.165313e-07
8.562992e-10
5.711459e-07
3.189647e-07
1.233751e-09
5.705498e-07
3.220889e-07
1.719712e-09
5.698348e-07
3.25409e-07
2.140726e-09
5.69381e-07
3.310544e-07
2.315349e-09
5.672848e-07
-6.736332e-11
5.510115e-07
3.543456e-07
2.932569e-07
2.76581e-07
3.923238e-07
4.700981e-07
4.09062e-07
5.525377e-07
4.015731e-07
5.769217e-07
3.917152e-07
5.792289e-07
3.823998e-07
5.785839e-07
3.726972e-07
5.789753e-07
3.639222e-07
5.780853e-07
3.559349e-07
5.773547e-07
3.485591e-07
5.768373e-07
3.41954e-07
5.761726e-07
3.362107e-07
5.754061e-07
3.31223e-07
5.747387e-07
3.269345e-07
5.741325e-07
3.233517e-07
5.735309e-07
3.204941e-07
5.729242e-07
3.183783e-07
5.723177e-07
3.170152e-07
5.717195e-07
3.164137e-07
5.711318e-07
3.165874e-07
5.705514e-07
3.175545e-07
5.69975e-07
3.193388e-07
5.69399e-07
3.219647e-07
5.688282e-07
3.254589e-07
5.682613e-07
3.298792e-07
5.67686e-07
3.352294e-07
5.671336e-07
3.416844e-07
5.665147e-07
3.490717e-07
5.660034e-07
3.582058e-07
5.644312e-07
5.577045e-07
3.716839e-07
2.894848e-07
1.27352e-09
2.804917e-07
3.833629e-07
1.740296e-09
4.756315e-07
3.95454e-07
1.886198e-09
5.572727e-07
3.855897e-07
1.812403e-09
5.793019e-07
3.729834e-07
1.641865e-09
5.822145e-07
3.606589e-07
1.438771e-09
5.821357e-07
3.494332e-07
1.216e-09
5.812597e-07
3.393176e-07
1.014104e-09
5.803515e-07
3.299205e-07
8.638659e-10
5.797832e-07
3.210931e-07
7.202199e-10
5.793572e-07
3.129715e-07
5.543027e-10
5.788173e-07
3.055976e-07
3.613045e-10
5.782626e-07
2.989956e-07
1.633446e-10
5.776886e-07
2.932652e-07
-5.091205e-11
5.770314e-07
2.883894e-07
-2.975606e-10
5.764233e-07
2.843208e-07
-5.620825e-10
5.758808e-07
2.810453e-07
-8.65851e-10
5.753913e-07
2.786033e-07
-1.223167e-09
5.749151e-07
2.770469e-07
-1.645425e-09
5.744519e-07
2.764475e-07
-2.144413e-09
5.739937e-07
2.768864e-07
-2.723539e-09
5.735347e-07
2.784423e-07
-3.388708e-09
5.730828e-07
2.812008e-07
-4.148337e-09
5.726399e-07
2.852749e-07
-5.019916e-09
5.721958e-07
2.908225e-07
-6.035166e-09
5.717376e-07
2.979855e-07
-7.199706e-09
5.712867e-07
3.071574e-07
-8.671942e-09
5.707501e-07
3.187332e-07
-1.067818e-08
5.703524e-07
3.361672e-07
-1.46331e-08
5.684491e-07
-1.963963e-08
5.516659e-07
3.753909e-07
2.895786e-07
1.279772e-10
2.828169e-07
3.823898e-07
1.35699e-11
4.801655e-07
3.933637e-07
2.034447e-10
5.619589e-07
3.843469e-07
4.230187e-11
5.820369e-07
3.718506e-07
-1.59651e-10
5.855478e-07
3.591516e-07
-3.14896e-10
5.857027e-07
3.470379e-07
-4.250411e-10
5.850047e-07
3.354656e-07
-4.745002e-10
5.84311e-07
3.242025e-07
-4.274946e-10
5.838045e-07
3.13248e-07
-3.24101e-10
5.832488e-07
3.026061e-07
-1.948523e-10
5.82641e-07
2.922363e-07
-4.160106e-11
5.820227e-07
2.820092e-07
1.409231e-10
5.814995e-07
2.718512e-07
3.282937e-10
5.810288e-07
2.617916e-07
5.149644e-10
5.804971e-07
2.51743e-07
7.311229e-10
5.800053e-07
2.415851e-07
9.525261e-10
5.795895e-07
2.312619e-07
1.18234e-09
5.791677e-07
2.206709e-07
1.44193e-09
5.787537e-07
2.097112e-07
1.73045e-09
5.783349e-07
1.982505e-07
2.050999e-09
5.779361e-07
1.86127e-07
2.406737e-09
5.775781e-07
1.73141e-07
2.804738e-09
5.772829e-07
1.59116e-07
3.242584e-09
5.770125e-07
1.438618e-07
3.725819e-09
5.767432e-07
1.271893e-07
4.236257e-09
5.764865e-07
1.0904e-07
4.713941e-09
5.760134e-07
9.074139e-08
4.708027e-09
5.741625e-07
8.154468e-08
3.018463e-09
5.627951e-07
-6.336296e-09
5.224391e-07
1.170522e-07
2.894633e-07
-9.285073e-10
2.828432e-07
3.820632e-07
-1.462994e-09
4.801266e-07
3.969141e-07
-1.088565e-09
5.576911e-07
3.885604e-07
-1.485466e-09
5.811315e-07
3.764866e-07
-1.955925e-09
5.8512e-07
3.640178e-07
-2.112883e-09
5.855169e-07
3.518235e-07
-2.132845e-09
5.851521e-07
3.401004e-07
-2.080863e-09
5.845794e-07
3.288264e-07
-1.974541e-09
5.840711e-07
3.18127e-07
-1.850229e-09
5.834755e-07
3.080357e-07
-1.724942e-09
5.828714e-07
2.985192e-07
-1.595651e-09
5.823206e-07
2.895588e-07
-1.467345e-09
5.818187e-07
2.811516e-07
-1.341043e-09
5.813265e-07
2.732821e-07
-1.210227e-09
5.808448e-07
2.659597e-07
-1.069918e-09
5.803734e-07
2.592079e-07
-9.249822e-10
5.798794e-07
2.530513e-07
-7.701208e-10
5.79359e-07
2.473923e-07
-5.892479e-10
5.789401e-07
2.421695e-07
-3.8843e-10
5.785917e-07
2.373965e-07
-1.721944e-10
5.782462e-07
2.331056e-07
5.908975e-11
5.778886e-07
2.293115e-07
3.143815e-10
5.775344e-07
2.260285e-07
5.878572e-10
5.771877e-07