/*--------------------------------*- C++ -*----------------------------------*\
| =========                 |                                                 |
| \\      /  F ield         | OpenFOAM: The Open Source CFD Toolbox           |
|  \\    /   O peration     | Version:  4.0                                   |
|   \\  /    A nd           | Web:      www.OpenFOAM.org                      |
|    \\/     M anipulation  |                                                 |
\*---------------------------------------------------------------------------*/
FoamFile
{
    version     2.0;
    format      ascii;
    class       volScalarField;
    location    "120/air";
    object      rho;
}
// * * * * * * * * * * * * * * * * * * * * * * * * * * * * * * * * * * * * * //

dimensions      [1 -3 0 0 0 0 0];

internalField   nonuniform List<scalar> 
39776
(
0.9135427
0.9136209
0.913677
0.9137189
0.913751
0.913776
0.9137958
0.9138116
0.9138244
0.9138347
0.9138431
0.91385
0.9138555
0.91386
0.9138637
0.9138666
0.9138688
0.9138704
0.9138715
0.9138718
0.9138714
0.9138699
0.9138669
0.9138617
0.913853
0.9138389
0.9138163
0.91378
0.9137216
0.9136272
0.9135477
0.9136329
0.9136954
0.913743
0.9137801
0.9138098
0.9138337
0.9138533
0.9138694
0.9138828
0.9138939
0.9139032
0.9139109
0.9139174
0.9139227
0.9139271
0.9139306
0.9139334
0.9139354
0.9139366
0.9139369
0.913936
0.9139334
0.9139285
0.9139201
0.9139061
0.9138835
0.9138473
0.9137891
0.9136958
0.9135489
0.9136339
0.9136962
0.9137437
0.9137808
0.9138104
0.9138343
0.9138538
0.9138699
0.9138833
0.9138944
0.9139036
0.9139113
0.9139178
0.9139231
0.9139274
0.913931
0.9139337
0.9139357
0.9139369
0.9139371
0.9139362
0.9139336
0.9139287
0.9139201
0.9139061
0.9138835
0.9138472
0.9137894
0.9136969
0.9135464
0.9136241
0.9136799
0.9137216
0.9137535
0.9137784
0.9137981
0.9138139
0.9138266
0.913837
0.9138454
0.9138522
0.9138578
0.9138623
0.913866
0.9138689
0.9138712
0.9138729
0.9138739
0.9138744
0.913874
0.9138726
0.9138697
0.9138647
0.9138563
0.9138426
0.9138208
0.9137857
0.9137295
0.9136387
0.9135484
0.9136257
0.9136812
0.9137226
0.9137544
0.9137791
0.9137988
0.9138144
0.9138271
0.9138374
0.9138457
0.9138525
0.9138581
0.9138626
0.9138662
0.9138691
0.9138714
0.913873
0.9138741
0.9138745
0.9138742
0.9138728
0.91387
0.913865
0.9138567
0.9138432
0.9138216
0.913787
0.9137313
0.9136414
0.9135524
0.9136367
0.9136985
0.9137456
0.9137824
0.9138117
0.9138354
0.9138548
0.9138708
0.913884
0.9138951
0.9139042
0.9139119
0.9139182
0.9139235
0.9139278
0.9139313
0.913934
0.913936
0.9139372
0.9139375
0.9139365
0.913934
0.9139291
0.9139207
0.9139069
0.9138846
0.9138488
0.9137918
0.9137004
0.9135529
0.9136371
0.9136989
0.9137459
0.9137827
0.9138119
0.9138356
0.913855
0.913871
0.9138842
0.9138952
0.9139043
0.913912
0.9139183
0.9139236
0.9139279
0.9139314
0.9139341
0.9139361
0.9139373
0.9139375
0.9139366
0.9139341
0.9139292
0.9139207
0.9139069
0.9138846
0.9138488
0.9137918
0.9137006
0.9135499
0.913627
0.9136823
0.9137236
0.9137553
0.91378
0.9137995
0.9138152
0.9138278
0.913838
0.9138464
0.9138532
0.9138587
0.9138632
0.9138668
0.9138697
0.913872
0.9138736
0.9138747
0.9138751
0.9138747
0.9138733
0.9138705
0.9138655
0.9138572
0.9138437
0.9138221
0.9137875
0.9137319
0.9136422
0.9135509
0.9136277
0.9136829
0.9137241
0.9137557
0.9137803
0.9137998
0.9138154
0.913828
0.9138382
0.9138465
0.9138533
0.9138588
0.9138633
0.9138669
0.9138698
0.913872
0.9138737
0.9138747
0.9138751
0.9138748
0.9138734
0.9138706
0.9138656
0.9138573
0.9138439
0.9138223
0.9137878
0.9137323
0.9136428
0.9135546
0.9136384
0.9137
0.9137468
0.9137834
0.9138125
0.9138361
0.9138554
0.9138713
0.9138845
0.9138955
0.9139046
0.9139122
0.9139185
0.9139237
0.913928
0.9139315
0.9139342
0.9139362
0.9139374
0.9139376
0.9139367
0.9139342
0.9139293
0.9139209
0.9139071
0.9138848
0.9138492
0.9137923
0.9137014
0.9135548
0.9136386
0.9137001
0.9137469
0.9137835
0.9138126
0.9138362
0.9138555
0.9138714
0.9138846
0.9138955
0.9139046
0.9139122
0.9139185
0.9139238
0.9139281
0.9139316
0.9139343
0.9139362
0.9139374
0.9139376
0.9139367
0.9139342
0.9139293
0.9139209
0.9139071
0.9138849
0.9138492
0.9137924
0.9137015
0.9135515
0.9136283
0.9136834
0.9137246
0.9137561
0.9137807
0.9138001
0.9138157
0.9138283
0.9138385
0.9138468
0.9138535
0.913859
0.9138635
0.9138671
0.91387
0.9138723
0.9138739
0.913875
0.9138754
0.913875
0.9138736
0.9138708
0.9138658
0.9138575
0.9138441
0.9138226
0.9137881
0.9137327
0.9136432
0.9135518
0.9136285
0.9136836
0.9137247
0.9137562
0.9137808
0.9138002
0.9138158
0.9138284
0.9138385
0.9138468
0.9138536
0.9138591
0.9138635
0.9138672
0.91387
0.9138723
0.9138739
0.913875
0.9138754
0.913875
0.9138736
0.9138708
0.9138658
0.9138575
0.9138441
0.9138226
0.9137881
0.9137328
0.9136434
0.9135553
0.913639
0.9137004
0.9137472
0.9137837
0.9138128
0.9138364
0.9138556
0.9138715
0.9138847
0.9138956
0.9139047
0.9139123
0.9139186
0.9139238
0.9139281
0.9139316
0.9139343
0.9139363
0.9139374
0.9139377
0.9139367
0.9139342
0.9139293
0.9139209
0.9139072
0.9138849
0.9138493
0.9137925
0.9137017
0.9135553
0.913639
0.9137004
0.9137472
0.9137837
0.9138128
0.9138364
0.9138556
0.9138715
0.9138847
0.9138956
0.9139047
0.9139123
0.9139186
0.9139238
0.9139281
0.9139316
0.9139343
0.9139363
0.9139374
0.9139377
0.9139367
0.9139342
0.9139293
0.9139209
0.9139072
0.9138849
0.9138493
0.9137925
0.9137017
0.9135518
0.9136285
0.9136836
0.9137247
0.9137562
0.9137808
0.9138002
0.9138158
0.9138284
0.9138385
0.9138468
0.9138536
0.9138591
0.9138635
0.9138672
0.91387
0.9138723
0.9138739
0.913875
0.9138754
0.913875
0.9138736
0.9138708
0.9138658
0.9138575
0.9138441
0.9138226
0.9137881
0.9137328
0.9136434
0.9135515
0.9136283
0.9136834
0.9137246
0.9137561
0.9137807
0.9138001
0.9138157
0.9138283
0.9138385
0.9138468
0.9138535
0.913859
0.9138635
0.9138671
0.91387
0.9138723
0.9138739
0.913875
0.9138754
0.913875
0.9138736
0.9138708
0.9138658
0.9138575
0.9138441
0.9138226
0.9137881
0.9137327
0.9136432
0.9135548
0.9136386
0.9137001
0.9137469
0.9137835
0.9138126
0.9138362
0.9138555
0.9138714
0.9138846
0.9138955
0.9139046
0.9139122
0.9139185
0.9139238
0.9139281
0.9139316
0.9139343
0.9139362
0.9139374
0.9139376
0.9139367
0.9139342
0.9139293
0.9139209
0.9139071
0.9138848
0.9138492
0.9137924
0.9137015
0.9135546
0.9136384
0.9137
0.9137468
0.9137834
0.9138125
0.9138362
0.9138554
0.9138713
0.9138845
0.9138955
0.9139046
0.9139122
0.9139185
0.9139237
0.913928
0.9139315
0.9139342
0.9139362
0.9139374
0.9139376
0.9139367
0.9139342
0.9139293
0.9139209
0.9139071
0.9138848
0.9138492
0.9137923
0.9137014
0.9135509
0.9136277
0.9136829
0.9137241
0.9137557
0.9137803
0.9137998
0.9138154
0.913828
0.9138382
0.9138465
0.9138533
0.9138588
0.9138633
0.9138669
0.9138698
0.913872
0.9138737
0.9138747
0.9138751
0.9138748
0.9138734
0.9138705
0.9138656
0.9138573
0.9138439
0.9138223
0.9137878
0.9137323
0.9136427
0.9135499
0.913627
0.9136823
0.9137237
0.9137553
0.91378
0.9137995
0.9138152
0.9138278
0.9138381
0.9138464
0.9138532
0.9138587
0.9138632
0.9138668
0.9138697
0.913872
0.9138736
0.9138747
0.9138751
0.9138747
0.9138733
0.9138705
0.9138655
0.9138572
0.9138437
0.9138221
0.9137875
0.9137319
0.9136421
0.9135529
0.9136371
0.9136989
0.9137459
0.9137827
0.9138119
0.9138356
0.913855
0.913871
0.9138842
0.9138952
0.9139043
0.913912
0.9139183
0.9139236
0.9139279
0.9139314
0.9139341
0.9139361
0.9139373
0.9139375
0.9139366
0.913934
0.9139292
0.9139207
0.9139069
0.9138845
0.9138488
0.9137918
0.9137005
0.9135524
0.9136367
0.9136986
0.9137456
0.9137824
0.9138117
0.9138354
0.9138548
0.9138708
0.9138841
0.9138951
0.9139042
0.9139119
0.9139182
0.9139235
0.9139278
0.9139313
0.9139341
0.913936
0.9139372
0.9139375
0.9139366
0.913934
0.9139291
0.9139207
0.9139069
0.9138846
0.9138488
0.9137918
0.9137005
0.9135484
0.9136257
0.9136812
0.9137227
0.9137544
0.9137792
0.9137988
0.9138145
0.9138271
0.9138374
0.9138457
0.9138525
0.9138581
0.9138626
0.9138662
0.9138691
0.9138714
0.913873
0.9138741
0.9138745
0.9138742
0.9138728
0.91387
0.913865
0.9138567
0.9138433
0.9138217
0.913787
0.9137314
0.9136414
0.9135464
0.9136241
0.9136799
0.9137216
0.9137535
0.9137784
0.9137981
0.9138139
0.9138267
0.913837
0.9138454
0.9138522
0.9138578
0.9138623
0.913866
0.9138689
0.9138712
0.9138729
0.913874
0.9138744
0.913874
0.9138726
0.9138697
0.9138647
0.9138563
0.9138427
0.9138208
0.9137858
0.9137296
0.9136388
0.9135489
0.9136339
0.9136963
0.9137437
0.9137808
0.9138104
0.9138343
0.9138538
0.91387
0.9138833
0.9138944
0.9139036
0.9139113
0.9139178
0.9139231
0.9139274
0.913931
0.9139337
0.9139357
0.9139369
0.9139371
0.9139362
0.9139336
0.9139287
0.9139201
0.9139061
0.9138835
0.9138473
0.9137895
0.913697
0.9135478
0.913633
0.9136954
0.913743
0.9137801
0.9138098
0.9138337
0.9138533
0.9138694
0.9138828
0.9138939
0.9139032
0.9139109
0.9139174
0.9139227
0.9139271
0.9139306
0.9139334
0.9139354
0.9139366
0.9139369
0.913936
0.9139334
0.9139286
0.9139201
0.9139062
0.9138836
0.9138474
0.9137893
0.913696
0.9135427
0.9136209
0.913677
0.9137189
0.913751
0.913776
0.9137958
0.9138116
0.9138244
0.9138347
0.9138431
0.91385
0.9138555
0.91386
0.9138637
0.9138666
0.9138688
0.9138705
0.9138715
0.9138719
0.9138714
0.9138699
0.9138669
0.9138617
0.913853
0.913839
0.9138164
0.9137801
0.9137218
0.9136275
0.9134958
0.9135335
0.9135698
0.9136035
0.9136341
0.9136613
0.913685
0.9137055
0.913723
0.9137377
0.91375
0.9137602
0.9137684
0.9137748
0.9137795
0.9137827
0.9137843
0.9137843
0.9137824
0.9137785
0.9137721
0.9137627
0.9137496
0.9137319
0.9137084
0.9136778
0.9136385
0.9135889
0.9135276
0.9134536
0.9135029
0.9135521
0.9135991
0.9136427
0.9136822
0.9137174
0.9137483
0.9137751
0.9137983
0.9138182
0.9138351
0.9138494
0.9138613
0.9138711
0.9138789
0.9138849
0.9138891
0.9138913
0.9138915
0.9138893
0.9138844
0.9138762
0.9138638
0.9138462
0.9138222
0.91379
0.9137481
0.9136943
0.9136271
0.9135456
0.9135041
0.9135532
0.9136003
0.9136439
0.9136834
0.9137185
0.9137494
0.9137762
0.9137994
0.9138192
0.9138361
0.9138504
0.9138623
0.913872
0.9138798
0.9138857
0.9138898
0.9138919
0.913892
0.9138897
0.9138846
0.9138762
0.9138635
0.9138457
0.9138214
0.913789
0.913747
0.9136934
0.9136267
0.9135463
0.9134995
0.9135373
0.9135736
0.9136074
0.9136379
0.9136651
0.9136888
0.9137093
0.9137268
0.9137415
0.9137539
0.913764
0.9137722
0.9137787
0.9137836
0.9137868
0.9137886
0.9137887
0.913787
0.9137833
0.9137773
0.9137682
0.9137556
0.9137385
0.9137158
0.9136862
0.9136483
0.9136005
0.9135415
0.9134706
0.9135016
0.9135392
0.9135753
0.9136089
0.9136393
0.9136663
0.9136899
0.9137102
0.9137276
0.9137423
0.9137545
0.9137646
0.9137728
0.9137792
0.913784
0.9137873
0.913789
0.9137891
0.9137875
0.9137838
0.9137778
0.9137689
0.9137564
0.9137394
0.913717
0.9136878
0.9136503
0.9136031
0.9135448
0.9134747
0.9135078
0.9135566
0.9136033
0.9136466
0.9136858
0.9137207
0.9137513
0.913778
0.9138009
0.9138206
0.9138374
0.9138515
0.9138633
0.913873
0.9138807
0.9138866
0.9138906
0.9138927
0.9138928
0.9138905
0.9138855
0.9138772
0.9138647
0.9138471
0.9138231
0.9137912
0.9137496
0.9136967
0.9136308
0.9135512
0.9135083
0.9135571
0.9136037
0.913647
0.9136862
0.9137211
0.9137517
0.9137783
0.9138013
0.9138209
0.9138377
0.9138518
0.9138636
0.9138732
0.9138809
0.9138868
0.9138908
0.9138929
0.9138929
0.9138906
0.9138856
0.9138772
0.9138647
0.9138471
0.913823
0.9137911
0.9137495
0.9136966
0.9136307
0.9135513
0.9135032
0.9135408
0.9135768
0.9136103
0.9136407
0.9136676
0.9136911
0.9137115
0.9137288
0.9137434
0.9137556
0.9137657
0.9137739
0.9137803
0.913785
0.9137883
0.91379
0.9137901
0.9137884
0.9137847
0.9137787
0.9137697
0.9137572
0.9137402
0.9137177
0.9136884
0.9136509
0.9136036
0.9135453
0.9134752
0.9135043
0.9135417
0.9135776
0.913611
0.9136413
0.9136681
0.9136916
0.9137118
0.9137291
0.9137437
0.9137559
0.9137659
0.913774
0.9137804
0.9137852
0.9137884
0.9137901
0.9137902
0.9137885
0.9137849
0.9137788
0.9137699
0.9137574
0.9137405
0.9137181
0.9136889
0.9136514
0.9136043
0.9135461
0.9134762
0.9135101
0.9135587
0.9136051
0.9136482
0.9136873
0.913722
0.9137525
0.913779
0.9138018
0.9138214
0.9138381
0.9138522
0.9138639
0.9138735
0.9138812
0.913887
0.913891
0.9138931
0.9138931
0.9138909
0.9138858
0.9138775
0.913865
0.9138474
0.9138235
0.9137916
0.9137502
0.9136974
0.9136317
0.9135525
0.9135103
0.9135589
0.9136053
0.9136484
0.9136874
0.9137222
0.9137526
0.9137791
0.913802
0.9138216
0.9138382
0.9138523
0.913864
0.9138736
0.9138813
0.9138871
0.9138911
0.9138932
0.9138932
0.9138909
0.9138859
0.9138775
0.9138651
0.9138475
0.9138235
0.9137917
0.9137502
0.9136974
0.9136317
0.9135525
0.913505
0.9135423
0.9135782
0.9136116
0.9136419
0.9136687
0.9136921
0.9137124
0.9137296
0.9137442
0.9137563
0.9137664
0.9137745
0.9137809
0.9137856
0.9137888
0.9137905
0.9137906
0.9137889
0.9137853
0.9137792
0.9137703
0.9137578
0.9137409
0.9137184
0.9136892
0.9136518
0.9136047
0.9135465
0.9134766
0.9135053
0.9135426
0.9135785
0.9136118
0.913642
0.9136688
0.9136923
0.9137125
0.9137297
0.9137443
0.9137564
0.9137664
0.9137745
0.9137809
0.9137857
0.9137889
0.9137906
0.9137906
0.913789
0.9137853
0.9137793
0.9137703
0.9137578
0.9137409
0.9137185
0.9136893
0.9136519
0.9136048
0.9135466
0.9134768
0.9135108
0.9135594
0.9136058
0.9136488
0.9136878
0.9137224
0.9137529
0.9137793
0.9138022
0.9138217
0.9138384
0.9138524
0.9138641
0.9138737
0.9138814
0.9138872
0.9138911
0.9138932
0.9138933
0.913891
0.9138859
0.9138776
0.9138651
0.9138476
0.9138236
0.9137918
0.9137504
0.9136976
0.913632
0.9135528
0.9135108
0.9135594
0.9136058
0.9136488
0.9136878
0.9137224
0.9137529
0.9137793
0.9138022
0.9138217
0.9138384
0.9138524
0.9138641
0.9138737
0.9138814
0.9138872
0.9138911
0.9138932
0.9138933
0.913891
0.9138859
0.9138776
0.9138651
0.9138476
0.9138236
0.9137918
0.9137504
0.9136976
0.913632
0.9135528
0.9135053
0.9135426
0.9135785
0.9136118
0.913642
0.9136688
0.9136923
0.9137125
0.9137297
0.9137443
0.9137564
0.9137664
0.9137745
0.9137809
0.9137857
0.9137889
0.9137906
0.9137906
0.913789
0.9137853
0.9137793
0.9137703
0.9137578
0.9137409
0.9137185
0.9136893
0.9136519
0.9136048
0.9135466
0.9134768
0.913505
0.9135424
0.9135783
0.9136116
0.9136419
0.9136687
0.9136921
0.9137124
0.9137296
0.9137442
0.9137563
0.9137664
0.9137745
0.9137809
0.9137856
0.9137888
0.9137905
0.9137906
0.9137889
0.9137853
0.9137792
0.9137703
0.9137578
0.9137409
0.9137184
0.9136893
0.9136518
0.9136047
0.9135465
0.9134766
0.9135103
0.9135589
0.9136053
0.9136484
0.9136874
0.9137222
0.9137526
0.9137791
0.913802
0.9138216
0.9138382
0.9138523
0.913864
0.9138736
0.9138813
0.9138871
0.9138911
0.9138932
0.9138932
0.9138909
0.9138859
0.9138775
0.9138651
0.9138475
0.9138235
0.9137917
0.9137502
0.9136974
0.9136318
0.9135526
0.9135101
0.9135587
0.9136051
0.9136482
0.9136873
0.913722
0.9137525
0.913779
0.9138018
0.9138214
0.9138381
0.9138522
0.9138639
0.9138735
0.9138812
0.913887
0.913891
0.9138931
0.9138931
0.9138909
0.9138858
0.9138775
0.913865
0.9138474
0.9138235
0.9137916
0.9137502
0.9136974
0.9136317
0.9135525
0.9135043
0.9135417
0.9135776
0.913611
0.9136413
0.9136681
0.9136916
0.9137118
0.9137291
0.9137437
0.9137559
0.9137659
0.913774
0.9137804
0.9137852
0.9137884
0.9137901
0.9137902
0.9137885
0.9137849
0.9137788
0.9137699
0.9137574
0.9137405
0.913718
0.9136888
0.9136514
0.9136043
0.9135461
0.9134762
0.9135032
0.9135408
0.9135768
0.9136103
0.9136407
0.9136676
0.9136912
0.9137115
0.9137288
0.9137434
0.9137556
0.9137657
0.9137739
0.9137803
0.913785
0.9137883
0.91379
0.9137901
0.9137884
0.9137847
0.9137787
0.9137697
0.9137572
0.9137402
0.9137177
0.9136884
0.9136509
0.9136036
0.9135452
0.9134751
0.9135083
0.9135571
0.9136037
0.913647
0.9136862
0.9137211
0.9137517
0.9137783
0.9138013
0.9138209
0.9138377
0.9138518
0.9138636
0.9138732
0.9138809
0.9138868
0.9138908
0.9138929
0.9138929
0.9138906
0.9138856
0.9138772
0.9138647
0.9138471
0.913823
0.9137911
0.9137495
0.9136965
0.9136307
0.9135512
0.9135078
0.9135566
0.9136033
0.9136466
0.9136858
0.9137207
0.9137513
0.913778
0.9138009
0.9138206
0.9138374
0.9138515
0.9138633
0.913873
0.9138807
0.9138866
0.9138906
0.9138927
0.9138928
0.9138905
0.9138855
0.9138772
0.9138647
0.9138471
0.9138231
0.9137912
0.9137497
0.9136967
0.9136308
0.9135513
0.9135016
0.9135392
0.9135753
0.9136089
0.9136393
0.9136663
0.9136899
0.9137102
0.9137276
0.9137423
0.9137545
0.9137646
0.9137728
0.9137792
0.913784
0.9137873
0.913789
0.9137891
0.9137875
0.9137838
0.9137778
0.9137689
0.9137564
0.9137394
0.913717
0.9136878
0.9136503
0.9136031
0.9135448
0.9134748
0.9134995
0.9135373
0.9135736
0.9136074
0.913638
0.9136651
0.9136888
0.9137093
0.9137268
0.9137415
0.9137539
0.913764
0.9137723
0.9137787
0.9137836
0.9137869
0.9137886
0.9137887
0.9137871
0.9137834
0.9137773
0.9137683
0.9137556
0.9137385
0.9137159
0.9136863
0.9136484
0.9136006
0.9135416
0.9134708
0.9135041
0.9135533
0.9136003
0.9136439
0.9136834
0.9137186
0.9137494
0.9137763
0.9137994
0.9138193
0.9138361
0.9138504
0.9138623
0.9138721
0.9138798
0.9138857
0.9138898
0.9138919
0.913892
0.9138897
0.9138846
0.9138762
0.9138636
0.9138457
0.9138214
0.9137891
0.9137471
0.9136935
0.9136268
0.9135465
0.9135029
0.9135521
0.9135991
0.9136427
0.9136822
0.9137174
0.9137483
0.9137751
0.9137983
0.9138182
0.9138351
0.9138494
0.9138613
0.9138711
0.913879
0.9138849
0.9138891
0.9138913
0.9138915
0.9138893
0.9138845
0.9138762
0.9138638
0.9138463
0.9138223
0.9137902
0.9137482
0.9136945
0.9136273
0.9135459
0.9134958
0.9135335
0.9135698
0.9136036
0.9136342
0.9136613
0.9136851
0.9137055
0.913723
0.9137378
0.9137501
0.9137602
0.9137684
0.9137748
0.9137795
0.9137827
0.9137843
0.9137843
0.9137825
0.9137786
0.9137722
0.9137628
0.9137497
0.913732
0.9137086
0.913678
0.9136388
0.9135892
0.9135279
0.913454
0.9134802
0.913504
0.9135277
0.9135511
0.9135737
0.9135952
0.9136152
0.9136334
0.9136498
0.9136641
0.9136764
0.9136867
0.913695
0.9137013
0.9137055
0.9137075
0.9137074
0.9137048
0.9136996
0.9136913
0.9136797
0.9136643
0.9136444
0.9136194
0.9135887
0.9135517
0.9135076
0.9134561
0.9133967
0.9133294
0.9134881
0.9135245
0.9135604
0.9135955
0.9136291
0.9136607
0.91369
0.9137167
0.9137407
0.9137621
0.9137807
0.9137967
0.9138102
0.9138212
0.9138297
0.9138358
0.9138393
0.91384
0.9138377
0.913832
0.9138225
0.9138084
0.9137892
0.9137639
0.9137317
0.9136916
0.9136429
0.913585
0.9135175
0.9134407
0.9134892
0.9135256
0.9135617
0.9135968
0.9136305
0.9136621
0.9136915
0.9137182
0.9137423
0.9137636
0.9137822
0.9137982
0.9138117
0.9138226
0.9138311
0.9138371
0.9138405
0.9138411
0.9138387
0.9138328
0.913823
0.9138087
0.9137892
0.9137637
0.9137313
0.9136911
0.9136425
0.9135849
0.9135181
0.9134424
0.9134836
0.9135076
0.9135315
0.913555
0.9135778
0.9135994
0.9136194
0.9136378
0.9136542
0.9136686
0.9136811
0.9136915
0.9136999
0.9137063
0.9137107
0.913713
0.9137132
0.913711
0.9137062
0.9136985
0.9136876
0.9136729
0.913654
0.9136302
0.9136009
0.9135656
0.9135236
0.9134746
0.9134182
0.9133546
0.9134855
0.9135094
0.9135332
0.9135566
0.9135793
0.9136008
0.9136207
0.913639
0.9136553
0.9136697
0.9136821
0.9136924
0.9137008
0.9137072
0.9137116
0.9137139
0.913714
0.9137118
0.9137071
0.9136995
0.9136887
0.9136742
0.9136555
0.913632
0.9136031
0.9135682
0.9135267
0.9134783
0.9134226
0.9133598
0.9134926
0.9135289
0.9135647
0.9135996
0.9136331
0.9136646
0.9136937
0.9137203
0.9137442
0.9137654
0.9137839
0.9137998
0.9138131
0.913824
0.9138325
0.9138384
0.9138418
0.9138425
0.9138401
0.9138344
0.9138248
0.9138107
0.9137915
0.9137663
0.9137343
0.9136947
0.9136466
0.9135896
0.9135235
0.9134484
0.9134931
0.9135294
0.9135652
0.9136001
0.9136336
0.913665
0.9136942
0.9137207
0.9137446
0.9137658
0.9137843
0.9138001
0.9138135
0.9138244
0.9138328
0.9138387
0.9138421
0.9138427
0.9138403
0.9138345
0.9138248
0.9138107
0.9137914
0.9137662
0.9137341
0.9136944
0.9136464
0.9135894
0.9135233
0.9134483
0.9134871
0.913511
0.9135348
0.9135582
0.9135809
0.9136023
0.9136223
0.9136405
0.9136568
0.9136711
0.9136835
0.9136938
0.9137021
0.9137085
0.9137128
0.9137151
0.9137152
0.913713
0.9137082
0.9137006
0.9136897
0.9136752
0.9136564
0.9136328
0.9136038
0.9135689
0.9135273
0.9134787
0.9134229
0.9133599
0.9134881
0.9135119
0.9135356
0.9135589
0.9135815
0.9136029
0.9136228
0.9136409
0.9136572
0.9136715
0.9136838
0.9136941
0.9137024
0.9137087
0.9137131
0.9137153
0.9137155
0.9137132
0.9137085
0.9137009
0.91369
0.9136755
0.9136568
0.9136333
0.9136044
0.9135695
0.9135281
0.9134797
0.9134241
0.9133613
0.9134949
0.913531
0.9135667
0.9136015
0.9136348
0.9136661
0.9136952
0.9137216
0.9137454
0.9137665
0.9137849
0.9138007
0.913814
0.9138248
0.9138332
0.9138391
0.9138425
0.9138431
0.9138407
0.9138349
0.9138253
0.9138112
0.913792
0.9137668
0.9137349
0.9136953
0.9136474
0.9135905
0.9135246
0.9134498
0.9134951
0.9135312
0.9135669
0.9136017
0.913635
0.9136663
0.9136953
0.9137218
0.9137456
0.9137666
0.913785
0.9138009
0.9138141
0.913825
0.9138333
0.9138392
0.9138426
0.9138432
0.9138408
0.913835
0.9138253
0.9138112
0.913792
0.9137668
0.9137349
0.9136953
0.9136474
0.9135905
0.9135246
0.9134498
0.9134888
0.9135126
0.9135363
0.9135597
0.9135822
0.9136036
0.9136234
0.9136416
0.9136578
0.9136721
0.9136844
0.9136947
0.913703
0.9137093
0.9137136
0.9137159
0.913716
0.9137138
0.913709
0.9137014
0.9136905
0.913676
0.9136573
0.9136338
0.9136049
0.91357
0.9135285
0.9134801
0.9134245
0.9133616
0.9134891
0.9135129
0.9135366
0.9135599
0.9135824
0.9136037
0.9136236
0.9136417
0.9136579
0.9136722
0.9136845
0.9136948
0.9137031
0.9137094
0.9137137
0.913716
0.9137161
0.9137138
0.9137091
0.9137015
0.9136906
0.9136761
0.9136574
0.9136339
0.913605
0.9135701
0.9135287
0.9134803
0.9134247
0.9133619
0.9134956
0.9135317
0.9135674
0.9136021
0.9136354
0.9136667
0.9136956
0.9137221
0.9137458
0.9137669
0.9137852
0.913801
0.9138143
0.9138251
0.9138335
0.9138394
0.9138427
0.9138433
0.9138409
0.9138351
0.9138254
0.9138114
0.9137921
0.913767
0.913735
0.9136955
0.9136476
0.9135908
0.9135249
0.9134502
0.9134956
0.9135317
0.9135674
0.9136021
0.9136354
0.9136667
0.9136956
0.9137221
0.9137458
0.9137669
0.9137852
0.913801
0.9138143
0.9138251
0.9138335
0.9138394
0.9138427
0.9138433
0.9138409
0.9138351
0.9138254
0.9138114
0.9137921
0.913767
0.913735
0.9136955
0.9136476
0.9135908
0.9135249
0.9134502
0.9134891
0.9135129
0.9135366
0.9135599
0.9135824
0.9136037
0.9136236
0.9136417
0.9136579
0.9136722
0.9136845
0.9136948
0.9137031
0.9137094
0.9137137
0.913716
0.9137161
0.9137138
0.9137091
0.9137015
0.9136906
0.9136761
0.9136574
0.9136339
0.913605
0.9135701
0.9135287
0.9134803
0.9134247
0.9133619
0.9134888
0.9135126
0.9135363
0.9135597
0.9135822
0.9136036
0.9136234
0.9136416
0.9136578
0.9136721
0.9136844
0.9136947
0.913703
0.9137093
0.9137136
0.9137159
0.913716
0.9137138
0.913709
0.9137014
0.9136906
0.913676
0.9136573
0.9136338
0.9136049
0.91357
0.9135285
0.9134801
0.9134245
0.9133616
0.9134951
0.9135312
0.9135669
0.9136017
0.913635
0.9136663
0.9136953
0.9137218
0.9137456
0.9137666
0.913785
0.9138009
0.9138141
0.913825
0.9138333
0.9138392
0.9138426
0.9138432
0.9138408
0.913835
0.9138253
0.9138112
0.913792
0.9137668
0.9137349
0.9136953
0.9136474
0.9135906
0.9135246
0.9134499
0.9134949
0.913531
0.9135667
0.9136015
0.9136348
0.9136661
0.9136952
0.9137216
0.9137454
0.9137665
0.9137849
0.9138007
0.913814
0.9138248
0.9138332
0.9138391
0.9138425
0.9138431
0.9138407
0.9138349
0.9138253
0.9138112
0.913792
0.9137668
0.9137348
0.9136953
0.9136474
0.9135905
0.9135246
0.9134498
0.9134881
0.9135119
0.9135356
0.913559
0.9135815
0.9136029
0.9136228
0.9136409
0.9136572
0.9136715
0.9136838
0.9136941
0.9137024
0.9137087
0.9137131
0.9137153
0.9137155
0.9137132
0.9137085
0.9137009
0.91369
0.9136755
0.9136568
0.9136333
0.9136044
0.9135695
0.9135281
0.9134797
0.9134241
0.9133613
0.9134871
0.913511
0.9135348
0.9135582
0.9135809
0.9136023
0.9136223
0.9136405
0.9136568
0.9136711
0.9136835
0.9136938
0.9137021
0.9137085
0.9137128
0.9137151
0.9137152
0.913713
0.9137082
0.9137006
0.9136897
0.9136752
0.9136564
0.9136328
0.9136038
0.9135688
0.9135272
0.9134787
0.9134229
0.9133598
0.9134931
0.9135294
0.9135652
0.9136001
0.9136336
0.913665
0.9136942
0.9137207
0.9137446
0.9137658
0.9137843
0.9138001
0.9138135
0.9138244
0.9138328
0.9138387
0.9138421
0.9138427
0.9138403
0.9138345
0.9138248
0.9138107
0.9137914
0.9137662
0.9137341
0.9136944
0.9136464
0.9135894
0.9135232
0.9134482
0.9134926
0.9135289
0.9135647
0.9135996
0.9136331
0.9136646
0.9136937
0.9137203
0.9137442
0.9137654
0.9137839
0.9137998
0.9138131
0.913824
0.9138325
0.9138384
0.9138418
0.9138425
0.9138401
0.9138344
0.9138248
0.9138107
0.9137915
0.9137663
0.9137343
0.9136947
0.9136466
0.9135897
0.9135235
0.9134485
0.9134855
0.9135094
0.9135332
0.9135567
0.9135793
0.9136008
0.9136208
0.913639
0.9136553
0.9136697
0.9136821
0.9136924
0.9137008
0.9137072
0.9137116
0.9137139
0.913714
0.9137118
0.9137071
0.9136995
0.9136887
0.9136742
0.9136555
0.913632
0.9136031
0.9135682
0.9135268
0.9134784
0.9134227
0.9133598
0.9134836
0.9135076
0.9135315
0.913555
0.9135778
0.9135994
0.9136194
0.9136378
0.9136542
0.9136686
0.9136811
0.9136915
0.9136999
0.9137063
0.9137107
0.9137131
0.9137132
0.913711
0.9137062
0.9136985
0.9136876
0.9136729
0.913654
0.9136302
0.913601
0.9135657
0.9135237
0.9134747
0.9134184
0.9133547
0.9134892
0.9135257
0.9135617
0.9135968
0.9136305
0.9136622
0.9136915
0.9137182
0.9137423
0.9137636
0.9137822
0.9137982
0.9138117
0.9138227
0.9138311
0.9138371
0.9138405
0.9138411
0.9138387
0.9138328
0.9138231
0.9138088
0.9137893
0.9137638
0.9137314
0.9136912
0.9136427
0.9135851
0.9135183
0.9134426
0.9134881
0.9135245
0.9135605
0.9135955
0.9136291
0.9136607
0.91369
0.9137167
0.9137408
0.9137621
0.9137807
0.9137967
0.9138102
0.9138212
0.9138298
0.9138358
0.9138393
0.91384
0.9138378
0.9138321
0.9138226
0.9138085
0.9137893
0.913764
0.9137318
0.9136918
0.9136431
0.9135852
0.9135178
0.913441
0.9134802
0.913504
0.9135277
0.9135511
0.9135737
0.9135952
0.9136152
0.9136334
0.9136498
0.9136641
0.9136765
0.9136868
0.9136951
0.9137013
0.9137055
0.9137076
0.9137074
0.9137049
0.9136996
0.9136914
0.9136798
0.9136644
0.9136445
0.9136196
0.9135889
0.9135519
0.9135079
0.9134564
0.9133971
0.9133299
0.9134658
0.9134833
0.9135009
0.9135184
0.9135355
0.9135521
0.9135679
0.9135826
0.9135961
0.913608
0.9136181
0.9136265
0.9136328
0.913637
0.9136389
0.9136383
0.9136351
0.9136289
0.9136197
0.913607
0.9135905
0.9135698
0.9135446
0.9135145
0.9134791
0.9134381
0.9133911
0.9133379
0.9132784
0.9132125
0.9134747
0.9135051
0.9135353
0.9135651
0.9135942
0.9136221
0.9136486
0.9136733
0.9136959
0.9137164
0.9137344
0.91375
0.9137629
0.9137732
0.9137807
0.9137852
0.9137865
0.9137845
0.9137787
0.9137688
0.9137543
0.9137348
0.9137096
0.9136782
0.9136403
0.9135953
0.9135432
0.9134838
0.9134175
0.9133449
0.9134757
0.9135062
0.9135366
0.9135665
0.9135957
0.9136237
0.9136503
0.913675
0.9136978
0.9137182
0.9137363
0.9137519
0.9137648
0.9137751
0.9137825
0.913787
0.9137882
0.9137861
0.9137802
0.9137702
0.9137555
0.9137358
0.9137106
0.9136792
0.9136413
0.9135966
0.9135449
0.9134862
0.9134208
0.9133493
0.9134689
0.9134867
0.9135046
0.9135223
0.9135396
0.9135564
0.9135724
0.9135873
0.9136009
0.913613
0.9136234
0.913632
0.9136387
0.9136432
0.9136455
0.9136454
0.9136428
0.9136374
0.9136289
0.9136172
0.9136019
0.9135826
0.913559
0.9135309
0.9134977
0.9134594
0.9134155
0.9133661
0.913311
0.9132503
0.9134707
0.9134885
0.9135062
0.9135238
0.9135411
0.9135579
0.9135738
0.9135887
0.9136022
0.9136143
0.9136247
0.9136333
0.9136399
0.9136445
0.9136468
0.9136468
0.9136443
0.913639
0.9136307
0.9136192
0.9136041
0.9135851
0.9135619
0.9135342
0.9135016
0.9134638
0.9134206
0.9133718
0.9133175
0.9132575
0.9134788
0.9135093
0.9135396
0.9135694
0.9135984
0.9136264
0.9136528
0.9136774
0.9137
0.9137204
0.9137384
0.9137538
0.9137668
0.913777
0.9137844
0.9137889
0.9137903
0.9137883
0.9137826
0.9137728
0.9137584
0.9137391
0.9137142
0.9136834
0.913646
0.9136019
0.9135507
0.9134926
0.9134277
0.9133567
0.9134793
0.9135098
0.9135401
0.9135699
0.9135989
0.9136269
0.9136533
0.9136779
0.9137005
0.9137208
0.9137388
0.9137543
0.9137672
0.9137774
0.9137848
0.9137892
0.9137906
0.9137885
0.9137827
0.9137728
0.9137584
0.913739
0.9137141
0.9136831
0.9136456
0.9136014
0.9135502
0.9134921
0.9134272
0.9133562
0.9134722
0.91349
0.9135078
0.9135254
0.9135427
0.9135595
0.9135754
0.9135902
0.9136038
0.9136158
0.9136262
0.9136348
0.9136414
0.9136459
0.9136482
0.9136482
0.9136456
0.9136402
0.9136319
0.9136203
0.9136051
0.913586
0.9135627
0.9135348
0.913502
0.9134641
0.9134206
0.9133717
0.913317
0.9132568
0.9134731
0.9134909
0.9135086
0.9135262
0.9135434
0.9135601
0.913576
0.9135907
0.9136042
0.9136163
0.9136266
0.9136351
0.9136417
0.9136462
0.9136486
0.9136485
0.9136459
0.9136406
0.9136323
0.9136207
0.9136056
0.9135866
0.9135634
0.9135356
0.9135029
0.9134651
0.9134219
0.9133731
0.9133186
0.9132586
0.9134809
0.9135113
0.9135415
0.9135712
0.9136002
0.913628
0.9136543
0.9136789
0.9137014
0.9137217
0.9137396
0.913755
0.9137678
0.913778
0.9137853
0.9137898
0.9137911
0.913789
0.9137833
0.9137734
0.9137591
0.9137397
0.9137149
0.913684
0.9136467
0.9136026
0.9135515
0.9134935
0.9134288
0.913358
0.9134812
0.9135115
0.9135417
0.9135715
0.9136004
0.9136282
0.9136546
0.9136791
0.9137016
0.9137219
0.9137397
0.9137552
0.913768
0.9137781
0.9137855
0.9137899
0.9137912
0.9137891
0.9137834
0.9137735
0.9137591
0.9137398
0.9137149
0.913684
0.9136466
0.9136026
0.9135515
0.9134935
0.9134288
0.9133579
0.9134738
0.9134916
0.9135093
0.9135269
0.9135441
0.9135608
0.9135767
0.9135915
0.9136049
0.913617
0.9136273
0.9136358
0.9136424
0.9136469
0.9136492
0.9136491
0.9136465
0.9136412
0.9136329
0.9136213
0.9136061
0.9135871
0.9135639
0.913536
0.9135033
0.9134654
0.9134221
0.9133733
0.9133188
0.9132587
0.9134741
0.9134918
0.9135095
0.9135271
0.9135443
0.913561
0.9135768
0.9135916
0.9136051
0.9136171
0.9136274
0.9136359
0.9136425
0.913647
0.9136493
0.9136492
0.9136466
0.9136413
0.9136329
0.9136214
0.9136062
0.9135872
0.913564
0.9135362
0.9135035
0.9134656
0.9134223
0.9133735
0.913319
0.9132589
0.9134817
0.913512
0.9135422
0.9135719
0.9136008
0.9136286
0.9136549
0.9136794
0.9137019
0.9137221
0.91374
0.9137554
0.9137682
0.9137783
0.9137857
0.9137901
0.9137914
0.9137893
0.9137835
0.9137737
0.9137593
0.9137399
0.9137151
0.9136842
0.9136469
0.9136028
0.9135518
0.9134938
0.9134291
0.9133583
0.9134817
0.913512
0.9135422