/*--------------------------------*- C++ -*----------------------------------*\
| =========                 |                                                 |
| \\      /  F ield         | OpenFOAM: The Open Source CFD Toolbox           |
|  \\    /   O peration     | Version:  4.0                                   |
|   \\  /    A nd           | Web:      www.OpenFOAM.org                      |
|    \\/     M anipulation  |                                                 |
\*---------------------------------------------------------------------------*/
FoamFile
{
    version     2.0;
    format      ascii;
    class       volScalarField;
    location    "120/air";
    object      T;
}
// * * * * * * * * * * * * * * * * * * * * * * * * * * * * * * * * * * * * * //

dimensions      [0 0 0 1 0 0 0];

internalField   nonuniform List<scalar> 
39776
(
353.1635
353.1332
353.1115
353.0953
353.0828
353.0731
353.0655
353.0593
353.0544
353.0503
353.0471
353.0444
353.0422
353.0404
353.039
353.0378
353.0369
353.0362
353.0357
353.0354
353.0354
353.0358
353.0366
353.0382
353.0408
353.0453
353.0525
353.0643
353.0836
353.115
353.1614
353.1284
353.1042
353.0858
353.0714
353.06
353.0507
353.0431
353.0368
353.0316
353.0273
353.0237
353.0207
353.0182
353.0161
353.0144
353.013
353.0118
353.011
353.0105
353.0102
353.0105
353.0112
353.0129
353.0157
353.0206
353.0285
353.0414
353.0621
353.0957
353.1609
353.128
353.1039
353.0855
353.0712
353.0597
353.0505
353.0429
353.0366
353.0314
353.0271
353.0235
353.0205
353.018
353.0159
353.0142
353.0128
353.0117
353.0109
353.0104
353.0102
353.0104
353.0112
353.0128
353.0157
353.0206
353.0286
353.0414
353.062
353.0952
353.162
353.132
353.1104
353.0942
353.0819
353.0722
353.0646
353.0584
353.0535
353.0495
353.0462
353.0435
353.0413
353.0395
353.0381
353.0369
353.036
353.0353
353.0348
353.0345
353.0345
353.0348
353.0356
353.0372
353.0398
353.0442
353.0513
353.0629
353.0817
353.1124
353.1613
353.1314
353.1099
353.0938
353.0815
353.0719
353.0643
353.0582
353.0533
353.0493
353.0461
353.0434
353.0412
353.0395
353.038
353.0369
353.0359
353.0352
353.0347
353.0345
353.0344
353.0348
353.0356
353.0371
353.0397
353.044
353.0511
353.0626
353.0813
353.1117
353.1596
353.127
353.103
353.0848
353.0706
353.0592
353.05
353.0425
353.0363
353.0312
353.0269
353.0233
353.0203
353.0179
353.0158
353.0141
353.0127
353.0116
353.0108
353.0102
353.01
353.0103
353.0111
353.0127
353.0155
353.0203
353.0282
353.0408
353.0612
353.094
353.1594
353.1268
353.1029
353.0847
353.0705
353.0591
353.0499
353.0424
353.0362
353.0311
353.0268
353.0233
353.0203
353.0178
353.0158
353.0141
353.0127
353.0116
353.0108
353.0102
353.01
353.0102
353.011
353.0127
353.0155
353.0203
353.0282
353.0408
353.0612
353.0939
353.1607
353.1309
353.1094
353.0934
353.0812
353.0716
353.064
353.0579
353.053
353.0491
353.0458
353.0432
353.041
353.0392
353.0378
353.0366
353.0357
353.035
353.0345
353.0342
353.0342
353.0346
353.0354
353.0369
353.0395
353.0438
353.0509
353.0623
353.0809
353.1113
353.1603
353.1306
353.1092
353.0933
353.081
353.0715
353.0639
353.0579
353.053
353.049
353.0458
353.0431
353.041
353.0392
353.0378
353.0366
353.0357
353.035
353.0345
353.0342
353.0342
353.0345
353.0353
353.0369
353.0395
353.0438
353.0508
353.0622
353.0808
353.1111
353.1588
353.1263
353.1025
353.0844
353.0702
353.0589
353.0498
353.0423
353.0361
353.031
353.0267
353.0232
353.0202
353.0178
353.0157
353.014
353.0126
353.0115
353.0107
353.0102
353.01
353.0102
353.011
353.0126
353.0155
353.0203
353.0281
353.0407
353.061
353.0936
353.1587
353.1262
353.1024
353.0843
353.0702
353.0589
353.0497
353.0422
353.0361
353.031
353.0267
353.0232
353.0202
353.0177
353.0157
353.014
353.0126
353.0115
353.0107
353.0102
353.01
353.0102
353.011
353.0126
353.0155
353.0203
353.0281
353.0407
353.0609
353.0935
353.1601
353.1304
353.109
353.0931
353.0809
353.0714
353.0638
353.0577
353.0529
353.0489
353.0457
353.043
353.0409
353.0391
353.0377
353.0365
353.0356
353.0349
353.0344
353.0341
353.0341
353.0345
353.0353
353.0368
353.0394
353.0437
353.0507
353.0621
353.0807
353.1109
353.16
353.1303
353.109
353.093
353.0808
353.0713
353.0638
353.0577
353.0528
353.0489
353.0456
353.043
353.0409
353.0391
353.0377
353.0365
353.0356
353.0349
353.0344
353.0341
353.0341
353.0344
353.0352
353.0368
353.0394
353.0437
353.0507
353.0621
353.0806
353.1109
353.1585
353.1261
353.1023
353.0842
353.0701
353.0588
353.0497
353.0422
353.036
353.0309
353.0267
353.0231
353.0202
353.0177
353.0157
353.014
353.0126
353.0115
353.0107
353.0102
353.01
353.0102
353.011
353.0126
353.0155
353.0202
353.028
353.0406
353.0609
353.0934
353.1585
353.1261
353.1023
353.0842
353.0701
353.0588
353.0497
353.0422
353.036
353.0309
353.0267
353.0231
353.0202
353.0177
353.0157
353.014
353.0126
353.0115
353.0107
353.0102
353.01
353.0102
353.011
353.0126
353.0155
353.0202
353.028
353.0406
353.0609
353.0934
353.16
353.1303
353.109
353.093
353.0808
353.0713
353.0638
353.0577
353.0528
353.0489
353.0456
353.043
353.0409
353.0391
353.0377
353.0365
353.0356
353.0349
353.0344
353.0341
353.0341
353.0344
353.0352
353.0368
353.0394
353.0437
353.0507
353.0621
353.0806
353.1109
353.1601
353.1304
353.109
353.0931
353.0809
353.0714
353.0638
353.0577
353.0529
353.0489
353.0457
353.043
353.0409
353.0391
353.0377
353.0365
353.0356
353.0349
353.0344
353.0341
353.0341
353.0344
353.0353
353.0368
353.0394
353.0437
353.0507
353.0621
353.0807
353.1109
353.1587
353.1262
353.1024
353.0843
353.0702
353.0589
353.0497
353.0422
353.0361
353.031
353.0267
353.0232
353.0202
353.0177
353.0157
353.014
353.0126
353.0115
353.0107
353.0102
353.01
353.0102
353.011
353.0126
353.0155
353.0203
353.0281
353.0407
353.0609
353.0935
353.1588
353.1263
353.1025
353.0844
353.0702
353.0589
353.0498
353.0423
353.0361
353.031
353.0267
353.0232
353.0202
353.0178
353.0157
353.014
353.0126
353.0115
353.0107
353.0102
353.01
353.0102
353.011
353.0126
353.0155
353.0203
353.0281
353.0407
353.061
353.0936
353.1603
353.1306
353.1092
353.0933
353.081
353.0715
353.0639
353.0579
353.053
353.049
353.0458
353.0431
353.041
353.0392
353.0378
353.0366
353.0357
353.035
353.0345
353.0342
353.0342
353.0345
353.0353
353.0369
353.0395
353.0438
353.0508
353.0622
353.0808
353.1111
353.1607
353.1309
353.1094
353.0934
353.0812
353.0716
353.064
353.0579
353.053
353.0491
353.0458
353.0432
353.041
353.0392
353.0378
353.0366
353.0357
353.035
353.0345
353.0342
353.0342
353.0346
353.0354
353.0369
353.0395
353.0438
353.0509
353.0623
353.0809
353.1113
353.1594
353.1268
353.1029
353.0847
353.0705
353.0591
353.0499
353.0424
353.0362
353.0311
353.0268
353.0233
353.0203
353.0178
353.0158
353.0141
353.0127
353.0116
353.0108
353.0102
353.01
353.0102
353.011
353.0127
353.0155
353.0203
353.0282
353.0408
353.0612
353.0939
353.1596
353.127
353.103
353.0848
353.0706
353.0592
353.05
353.0425
353.0363
353.0312
353.0269
353.0233
353.0203
353.0179
353.0158
353.0141
353.0127
353.0116
353.0108
353.0102
353.01
353.0103
353.0111
353.0127
353.0155
353.0203
353.0282
353.0408
353.0612
353.094
353.1613
353.1314
353.1099
353.0938
353.0815
353.0719
353.0643
353.0582
353.0533
353.0493
353.0461
353.0434
353.0412
353.0395
353.038
353.0369
353.0359
353.0352
353.0347
353.0345
353.0344
353.0348
353.0356
353.0371
353.0397
353.044
353.0511
353.0626
353.0813
353.1117
353.162
353.132
353.1103
353.0942
353.0819
353.0722
353.0645
353.0584
353.0535
353.0495
353.0462
353.0435
353.0413
353.0395
353.0381
353.0369
353.036
353.0353
353.0348
353.0345
353.0345
353.0348
353.0356
353.0372
353.0398
353.0442
353.0513
353.0629
353.0817
353.1124
353.1609
353.128
353.1039
353.0855
353.0712
353.0597
353.0505
353.0429
353.0366
353.0314
353.0271
353.0235
353.0205
353.018
353.0159
353.0142
353.0128
353.0117
353.0109
353.0104
353.0102
353.0104
353.0112
353.0128
353.0157
353.0206
353.0286
353.0414
353.062
353.0952
353.1614
353.1284
353.1042
353.0858
353.0714
353.06
353.0507
353.0431
353.0368
353.0316
353.0273
353.0237
353.0207
353.0182
353.0161
353.0144
353.013
353.0118
353.011
353.0105
353.0102
353.0105
353.0112
353.0129
353.0157
353.0206
353.0285
353.0414
353.0621
353.0956
353.1635
353.1332
353.1115
353.0953
353.0828
353.0731
353.0655
353.0593
353.0543
353.0503
353.047
353.0444
353.0422
353.0404
353.039
353.0378
353.0369
353.0362
353.0357
353.0354
353.0354
353.0358
353.0366
353.0382
353.0408
353.0453
353.0525
353.0643
353.0835
353.115
353.1804
353.1659
353.1518
353.1388
353.127
353.1164
353.1073
353.0993
353.0925
353.0868
353.082
353.078
353.0747
353.0721
353.07
353.0685
353.0675
353.067
353.0671
353.0678
353.0692
353.0714
353.0747
353.0792
353.0854
353.0935
353.1039
353.1172
353.1335
353.153
353.1777
353.1587
353.1405
353.1237
353.1084
353.0948
353.0829
353.0725
353.0635
353.0558
353.0492
353.0437
353.039
353.0351
353.032
353.0295
353.0277
353.0266
353.0262
353.0265
353.0278
353.0302
353.0339
353.0394
353.047
353.0572
353.0707
353.088
353.1097
353.1359
353.1772
353.1582
353.1401
353.1232
353.1079
353.0944
353.0824
353.072
353.0631
353.0554
353.0488
353.0433
353.0386
353.0348
353.0317
353.0292
353.0275
353.0264
353.026
353.0264
353.0277
353.0302
353.034
353.0396
353.0472
353.0575
353.071
353.0883
353.1097
353.1355
353.179
353.1644
353.1504
353.1373
353.1255
353.115
353.1058
353.0979
353.0911
353.0854
353.0805
353.0765
353.0732
353.0706
353.0685
353.067
353.066
353.0655
353.0655
353.0662
353.0676
353.0698
353.073
353.0775
353.0836
353.0916
353.102
353.115
353.1311
353.1503
353.1782
353.1637
353.1497
353.1367
353.125
353.1145
353.1054
353.0975
353.0908
353.0851
353.0803
353.0763
353.073
353.0704
353.0684
353.0669
353.0659
353.0654
353.0654
353.0661
353.0674
353.0696
353.0728
353.0773
353.0834
353.0913
353.1016
353.1145
353.1305
353.1494
353.1758
353.157
353.1389
353.1222
353.107
353.0935
353.0817
353.0714
353.0625
353.0549
353.0484
353.0429
353.0383
353.0344
353.0313
353.0289
353.0272
353.0261
353.0257
353.0261
353.0274
353.0298
353.0336
353.0391
353.0467
353.0569
353.0702
353.0872
353.1084
353.1338
353.1756
353.1568
353.1387
353.122
353.1069
353.0934
353.0816
353.0713
353.0624
353.0548
353.0483
353.0428
353.0382
353.0343
353.0313
353.0288
353.0271
353.026
353.0256
353.026
353.0274
353.0298
353.0336
353.0391
353.0467
353.0568
353.0702
353.0872
353.1083
353.1337
353.1776
353.1631
353.1491
353.1362
353.1244
353.114
353.1049
353.0971
353.0903
353.0846
353.0799
353.0759
353.0726
353.07
353.068
353.0665
353.0655
353.065
353.065
353.0657
353.0671
353.0692
353.0725
353.0769
353.0829
353.0909
353.1011
353.1141
353.13
353.1489
353.1772
353.1627
353.1488
353.1359
353.1242
353.1138
353.1048
353.0969
353.0902
353.0845
353.0798
353.0758
353.0726
353.07
353.0679
353.0664
353.0654
353.0649
353.065
353.0657
353.067
353.0692
353.0724
353.0769
353.0829
353.0908
353.101
353.1139
353.1298
353.1487
353.1749
353.1562
353.1382
353.1215
353.1065
353.093
353.0813
353.071
353.0622
353.0546
353.0481
353.0426
353.038
353.0342
353.0312
353.0288
353.027
353.0259
353.0256
353.026
353.0273
353.0297
353.0335
353.039
353.0465
353.0567
353.0699
353.0869
353.108
353.1333
353.1748
353.1561
353.1381
353.1215
353.1064
353.093
353.0812
353.071
353.0621
353.0545
353.0481
353.0426
353.038
353.0342
353.0311
353.0287
353.027
353.0259
353.0255
353.0259
353.0273
353.0297
353.0335
353.0389
353.0465
353.0566
353.0699
353.0868
353.1079
353.1332
353.1769
353.1625
353.1486
353.1357
353.124
353.1136
353.1045
353.0967
353.09
353.0844
353.0796
353.0756
353.0724
353.0698
353.0678
353.0662
353.0653
353.0648
353.0648
353.0655
353.0668
353.069
353.0722
353.0767
353.0827
353.0906
353.1008
353.1137
353.1296
353.1484
353.1768
353.1624
353.1485
353.1356
353.1239
353.1136
353.1045
353.0967
353.09
353.0843
353.0796
353.0756
353.0724
353.0698
353.0677
353.0662
353.0652
353.0648
353.0648
353.0655
353.0668
353.069
353.0722
353.0767
353.0827
353.0906
353.1008
353.1137
353.1295
353.1483
353.1746
353.1559
353.138
353.1213
353.1063
353.0929
353.0811
353.0709
353.062
353.0545
353.048
353.0425
353.038
353.0342
353.0311
353.0287
353.027
353.0259
353.0255
353.0259
353.0272
353.0297
353.0334
353.0389
353.0465
353.0566
353.0698
353.0868
353.1078
353.1331
353.1746
353.1559
353.138
353.1213
353.1063
353.0929
353.0811
353.0709
353.062
353.0545
353.048
353.0425
353.038
353.0342
353.0311
353.0287
353.027
353.0259
353.0255
353.0259
353.0272
353.0297
353.0334
353.0389
353.0465
353.0566
353.0698
353.0868
353.1078
353.1331
353.1768
353.1624
353.1485
353.1356
353.1239
353.1136
353.1045
353.0967
353.09
353.0843
353.0796
353.0756
353.0724
353.0698
353.0677
353.0662
353.0652
353.0648
353.0648
353.0655
353.0668
353.069
353.0722
353.0767
353.0827
353.0906
353.1008
353.1137
353.1295
353.1483
353.1769
353.1625
353.1486
353.1357
353.124
353.1136
353.1045
353.0967
353.09
353.0843
353.0796
353.0756
353.0724
353.0698
353.0678
353.0662
353.0653
353.0648
353.0648
353.0655
353.0668
353.069
353.0722
353.0767
353.0827
353.0906
353.1008
353.1137
353.1296
353.1484
353.1748
353.1561
353.1381
353.1215
353.1064
353.093
353.0812
353.071
353.0621
353.0545
353.0481
353.0426
353.038
353.0342
353.0311
353.0287
353.027
353.0259
353.0255
353.0259
353.0273
353.0297
353.0335
353.0389
353.0465
353.0566
353.0699
353.0868
353.1079
353.1332
353.1749
353.1562
353.1382
353.1215
353.1065
353.093
353.0813
353.071
353.0622
353.0546
353.0481
353.0426
353.038
353.0342
353.0312
353.0288
353.027
353.0259
353.0256
353.026
353.0273
353.0297
353.0335
353.039
353.0465
353.0567
353.0699
353.0869
353.108
353.1333
353.1772
353.1627
353.1488
353.1359
353.1242
353.1138
353.1048
353.0969
353.0902
353.0845
353.0798
353.0758
353.0726
353.07
353.0679
353.0664
353.0654
353.0649
353.065
353.0657
353.067
353.0692
353.0724
353.0769
353.0829
353.0908
353.101
353.1139
353.1298
353.1487
353.1776
353.1631
353.1491
353.1362
353.1244
353.114
353.1049
353.0971
353.0903
353.0846
353.0799
353.0759
353.0726
353.07
353.068
353.0665
353.0655
353.065
353.065
353.0657
353.0671
353.0692
353.0725
353.0769
353.0829
353.0909
353.1011
353.1141
353.13
353.1489
353.1756
353.1568
353.1387
353.122
353.1069
353.0934
353.0816
353.0713
353.0624
353.0548
353.0483
353.0428
353.0382
353.0343
353.0313
353.0288
353.0271
353.026
353.0256
353.026
353.0274
353.0298
353.0336
353.0391
353.0467
353.0568
353.0702
353.0872
353.1083
353.1337
353.1758
353.157
353.1389
353.1222
353.107
353.0935
353.0817
353.0714
353.0625
353.0549
353.0484
353.0429
353.0383
353.0344
353.0313
353.0289
353.0272
353.0261
353.0257
353.0261
353.0274
353.0298
353.0336
353.0391
353.0467
353.0569
353.0702
353.0872
353.1084
353.1338
353.1782
353.1637
353.1497
353.1367
353.125
353.1145
353.1054
353.0975
353.0908
353.0851
353.0803
353.0763
353.073
353.0704
353.0684
353.0669
353.0659
353.0654
353.0654
353.0661
353.0674
353.0696
353.0728
353.0773
353.0833
353.0913
353.1016
353.1145
353.1305
353.1494
353.179
353.1644
353.1504
353.1373
353.1255
353.115
353.1058
353.0979
353.0911
353.0854
353.0805
353.0765
353.0732
353.0706
353.0685
353.067
353.066
353.0655
353.0655
353.0662
353.0676
353.0698
353.073
353.0775
353.0836
353.0916
353.102
353.115
353.1311
353.1503
353.1772
353.1582
353.1401
353.1232
353.1079
353.0943
353.0824
353.072
353.0631
353.0554
353.0488
353.0433
353.0386
353.0348
353.0317
353.0292
353.0274
353.0263
353.026
353.0264
353.0277
353.0302
353.034
353.0396
353.0472
353.0575
353.071
353.0883
353.1097
353.1354
353.1777
353.1587
353.1405
353.1236
353.1084
353.0948
353.0829
353.0725
353.0635
353.0558
353.0492
353.0437
353.039
353.0351
353.032
353.0295
353.0277
353.0266
353.0262
353.0265
353.0278
353.0302
353.0339
353.0394
353.047
353.0572
353.0707
353.088
353.1097
353.1359
353.1804
353.1659
353.1518
353.1388
353.1269
353.1164
353.1073
353.0993
353.0925
353.0868
353.082
353.078
353.0747
353.0721
353.07
353.0685
353.0675
353.067
353.0671
353.0678
353.0692
353.0714
353.0747
353.0792
353.0854
353.0935
353.1039
353.1172
353.1335
353.153
353.1857
353.1765
353.1674
353.1583
353.1495
353.1412
353.1334
353.1262
353.1198
353.1141
353.1091
353.1048
353.1012
353.0983
353.0961
353.0945
353.0936
353.0934
353.0939
353.0952
353.0973
353.1004
353.1046
353.1099
353.1166
353.1247
353.1343
353.1454
353.158
353.1719
353.1828
353.1688
353.1549
353.1413
353.1283
353.1161
353.1047
353.0943
353.085
353.0766
353.0693
353.063
353.0576
353.053
353.0494
353.0466
353.0447
353.0438
353.0438
353.0449
353.0472
353.0509
353.0563
353.0636
353.0729
353.0847
353.099
353.1161
353.1359
353.1584
353.1824
353.1683
353.1544
353.1408
353.1278
353.1155
353.1041
353.0938
353.0844
353.0761
353.0688
353.0624
353.057
353.0525
353.0489
353.0462
353.0443
353.0434
353.0435
353.0446
353.0471
353.0509
353.0564
353.0637
353.0732
353.085
353.0993
353.1163
353.1359
353.158
353.1845
353.1752
353.1659
353.1568
353.148
353.1396
353.1318
353.1246
353.1181
353.1124
353.1074
353.1031
353.0995
353.0966
353.0943
353.0927
353.0918
353.0915
353.092
353.0932
353.0953
353.0984
353.1025
353.1079
353.1145
353.1225
353.1321
353.1431
353.1557
353.1695
353.1837
353.1745
353.1653
353.1562
353.1474
353.1391
353.1313
353.1242
353.1177
353.112
353.107
353.1028
353.0992
353.0963
353.0941
353.0925
353.0915
353.0913
353.0918
353.093
353.0951
353.0981
353.1022
353.1075
353.1141
353.1221
353.1315
353.1425
353.1549
353.1686
353.1811
353.1671
353.1532
353.1397
353.1268
353.1146
353.1033
353.093
353.0837
353.0754
353.0681
353.0618
353.0565
353.052
353.0484
353.0457
353.0438
353.0429
353.043
353.0441
353.0465
353.0503
353.0557
353.0629
353.0723
353.0839
353.0981
353.1149
353.1343
353.1562
353.1809
353.1669
353.153
353.1395
353.1266
353.1144
353.1031
353.0928
353.0835
353.0752
353.068
353.0617
353.0563
353.0519
353.0483
353.0456
353.0437
353.0428
353.0429
353.0441
353.0465
353.0503
353.0557
353.0629
353.0722
353.0839
353.0981
353.1148
353.1342
353.1561
353.1831
353.1739
353.1647
353.1556
353.1468
353.1385
353.1307
353.1236
353.1171
353.1115
353.1065
353.1022
353.0987
353.0958
353.0935
353.092
353.091
353.0908
353.0913
353.0925
353.0946
353.0976
353.1017
353.107
353.1136
353.1215
353.131
353.1419
353.1543
353.168
353.1827
353.1735
353.1643
353.1553
353.1466
353.1383
353.1305
353.1234
353.117
353.1113
353.1064
353.1021
353.0986
353.0957
353.0935
353.0919
353.091
353.0907
353.0912
353.0924
353.0945
353.0976
353.1016
353.1069
353.1134
353.1214
353.1308
353.1417
353.1541
353.1677
353.1802
353.1663
353.1525
353.139
353.1261
353.114
353.1027
353.0925
353.0832
353.075
353.0677
353.0615
353.0561
353.0517
353.0481
353.0454
353.0436
353.0427
353.0428
353.0439
353.0463
353.0501
353.0555
353.0627
353.072
353.0836
353.0977
353.1145
353.1338
353.1556
353.1801
353.1662
353.1524
353.1389
353.126
353.1139
353.1027
353.0924
353.0831
353.0749
353.0677
353.0614
353.0561
353.0516
353.0481
353.0454
353.0435
353.0426
353.0427
353.0439
353.0463
353.0501
353.0554
353.0627
353.072
353.0836
353.0977
353.1144
353.1337
353.1555
353.1824
353.1732
353.1641
353.155
353.1463
353.138
353.1302
353.1231
353.1168
353.1111
353.1061
353.1019
353.0983
353.0955
353.0932
353.0917
353.0907
353.0905
353.091
353.0922
353.0943
353.0973
353.1014
353.1067
353.1132
353.1211
353.1306
353.1415
353.1538
353.1675
353.1823
353.1731
353.164
353.155
353.1462
353.1379
353.1302
353.1231
353.1167
353.111
353.1061
353.1019
353.0983
353.0954
353.0932
353.0916
353.0907
353.0905
353.0909
353.0922
353.0943
353.0973
353.1014
353.1066
353.1132
353.1211
353.1305
353.1414
353.1538
353.1674
353.1799
353.166
353.1522
353.1388
353.1259
353.1138
353.1025
353.0923
353.0831
353.0748
353.0676
353.0614
353.056
353.0516
353.048
353.0453
353.0435
353.0426
353.0427
353.0438
353.0462
353.05
353.0554
353.0626
353.0719
353.0835
353.0976
353.1143
353.1336
353.1554
353.1799
353.166
353.1522
353.1388
353.1259
353.1138
353.1025
353.0923
353.0831
353.0748
353.0676
353.0614
353.056
353.0516
353.048
353.0453
353.0435
353.0426
353.0427
353.0438
353.0462
353.05
353.0554
353.0626
353.0719
353.0835
353.0976
353.1143
353.1336
353.1554
353.1823
353.1731
353.164
353.155
353.1462
353.1379
353.1302
353.1231
353.1167
353.111
353.1061
353.1019
353.0983
353.0954
353.0932
353.0916
353.0907
353.0905
353.0909
353.0922
353.0943
353.0973
353.1014
353.1066
353.1132
353.1211
353.1305
353.1414
353.1537
353.1674
353.1824
353.1732
353.1641
353.155
353.1463
353.138
353.1302
353.1231
353.1167
353.1111
353.1061
353.1019
353.0983
353.0955
353.0932
353.0917
353.0907
353.0905
353.091
353.0922
353.0943
353.0973
353.1014
353.1067
353.1132
353.1211
353.1305
353.1415
353.1538
353.1675
353.1801
353.1662
353.1524
353.1389
353.126
353.1139
353.1027
353.0924
353.0831
353.0749
353.0677
353.0614
353.0561
353.0516
353.0481
353.0454
353.0435
353.0426
353.0427
353.0439
353.0463
353.0501
353.0554
353.0627
353.072
353.0836
353.0977
353.1144
353.1337
353.1555
353.1802
353.1663
353.1525
353.139
353.1261
353.114
353.1027
353.0925
353.0832
353.075
353.0677
353.0615
353.0561
353.0517
353.0481
353.0454
353.0436
353.0427
353.0428
353.0439
353.0463
353.0501
353.0555
353.0627
353.072
353.0836
353.0977
353.1145
353.1338
353.1556
353.1827
353.1735
353.1643
353.1553
353.1466
353.1383
353.1305
353.1234
353.117
353.1113
353.1064
353.1021
353.0986
353.0957
353.0935
353.0919
353.091
353.0907
353.0912
353.0924
353.0945
353.0975
353.1016
353.1069
353.1134
353.1214
353.1308
353.1417
353.1541
353.1677
353.1831
353.1739
353.1647
353.1556
353.1468
353.1385
353.1307
353.1236
353.1171
353.1114
353.1065
353.1022
353.0987
353.0958
353.0935
353.092
353.091
353.0908
353.0913
353.0925
353.0946
353.0976
353.1017
353.107
353.1136
353.1215
353.131
353.1419
353.1543
353.168
353.1809
353.1669
353.153
353.1395
353.1266
353.1144
353.1031
353.0928
353.0835
353.0752
353.068
353.0617
353.0563
353.0519
353.0483
353.0456
353.0437
353.0428
353.0429
353.0441
353.0465
353.0503
353.0557
353.0629
353.0722
353.0839
353.0981
353.1148
353.1342
353.1561
353.1811
353.1671
353.1532
353.1397
353.1268
353.1146
353.1033
353.093
353.0837
353.0754
353.0681
353.0618
353.0565
353.052
353.0484
353.0457
353.0438
353.0429
353.043
353.0441
353.0465
353.0503
353.0557
353.0629
353.0723
353.0839
353.0981
353.1149
353.1343
353.1562
353.1837
353.1745
353.1653
353.1562
353.1474
353.1391
353.1313
353.1241
353.1177
353.112
353.107
353.1028
353.0992
353.0963
353.0941
353.0925
353.0915
353.0913
353.0918
353.093
353.0951
353.0981
353.1022
353.1075
353.1141
353.122
353.1315
353.1425
353.1549
353.1686
353.1845
353.1752
353.1659
353.1568
353.148
353.1396
353.1318
353.1246
353.1181
353.1124
353.1074
353.1031
353.0995
353.0966
353.0943
353.0927
353.0918
353.0915
353.092
353.0932
353.0953
353.0984
353.1025
353.1078
353.1145
353.1225
353.1321
353.1431
353.1556
353.1695
353.1824
353.1683
353.1544
353.1408
353.1278
353.1155
353.1041
353.0938
353.0844
353.0761
353.0687
353.0624
353.057
353.0525
353.0489
353.0462
353.0443
353.0434
353.0435
353.0446
353.0471
353.0509
353.0564
353.0637
353.0732
353.0849
353.0993
353.1162
353.1358
353.1579
353.1828
353.1687
353.1548
353.1413
353.1283
353.116
353.1047
353.0943
353.085
353.0766
353.0693
353.063
353.0576
353.053
353.0494
353.0466
353.0447
353.0437
353.0438
353.0449
353.0472
353.0509
353.0563
353.0635
353.0729
353.0846
353.099
353.1161
353.1359
353.1584
353.1857
353.1765
353.1673
353.1583
353.1495
353.1412
353.1334
353.1262
353.1198
353.1141
353.1091
353.1048
353.1012
353.0983
353.0961
353.0945
353.0936
353.0934
353.0939
353.0952
353.0973
353.1004
353.1046
353.1099
353.1166
353.1247
353.1343
353.1454
353.158
353.1719
353.1899
353.1831
353.1763
353.1695
353.1628
353.1562
353.1499
353.144
353.1385
353.1335
353.1291
353.1252
353.1219
353.1193
353.1173
353.116
353.1155
353.1156
353.1165
353.1181
353.1207
353.1241
353.1284
353.1337
353.1399
353.1472
353.1554
353.1645
353.1745
353.1851
353.187
353.1752
353.1635
353.152
353.1407
353.1299
353.1195
353.1099
353.101
353.0929
353.0856
353.0793
353.0738
353.0693
353.0657
353.0631
353.0615
353.061
353.0617
353.0636
353.0669
353.0717
353.0782
353.0864
353.0965
353.1086
353.1226
353.1385
353.1562
353.1753
353.1866
353.1748
353.1631
353.1515
353.1402
353.1293
353.1189
353.1093
353.1003
353.0922
353.085
353.0786
353.0732
353.0687
353.0651
353.0626
353.061
353.0606
353.0614
353.0634
353.0668
353.0717
353.0782
353.0865
353.0967
353.1087
353.1227
353.1385
353.1559
353.1749
353.1888
353.1819
353.175
353.1681
353.1613
353.1547
353.1484
353.1424
353.1369
353.1318
353.1273
353.1234
353.1201
353.1175
353.1155
353.1142
353.1135
353.1136
353.1145
353.1161
353.1186
353.122
353.1263
353.1316
353.1378
353.1451
353.1533
353.1624
353.1724
353.1831
353.1882
353.1813
353.1744
353.1675
353.1608
353.1542
353.1479
353.1419
353.1364
353.1314
353.1269
353.123
353.1198
353.1171
353.1151
353.1138
353.1132
353.1133
353.1141
353.1157
353.1182
353.1215
353.1258
353.131
353.1372
353.1444
353.1526
353.1616
353.1716
353.1822
353.1854
353.1737
353.162
353.1504
353.1392
353.1283
353.118
353.1084
353.0995
353.0914
353.0842
353.0779
353.0725
353.068
353.0645
353.0619
353.0604
353.0599
353.0607
353.0626
353.066
353.0708
353.0772
353.0854
353.0955
353.1074
353.1212
353.1369
353.1543
353.1732
353.1852
353.1735
353.1618
353.1502
353.139
353.1281
353.1178
353.1082
353.0993
353.0912
353.084
353.0777
353.0723
353.0679
353.0643
353.0618
353.0603
353.0598
353.0606
353.0625
353.0659
353.0707
353.0772
353.0854
353.0954
353.1074
353.1212
353.1369
353.1542
353.173
353.1876
353.1807
353.1738
353.1669
353.1602
353.1536
353.1473
353.1413
353.1358
353.1308
353.1263
353.1224
353.1192
353.1165
353.1145
353.1132
353.1126
353.1127
353.1135
353.1152
353.1176
353.121
353.1252
353.1304
353.1366
353.1438
353.152
353.1611
353.171
353.1816
353.1872
353.1804
353.1735
353.1666
353.1599
353.1533
353.1471
353.1411
353.1356
353.1306
353.1262
353.1223
353.119
353.1164
353.1144
353.1131
353.1125
353.1126
353.1134
353.1151
353.1175
353.1208
353.1251
353.1303
353.1365
353.1436
353.1518
353.1608
353.1707
353.1814
353.1846
353.1729
353.1612
353.1497
353.1385
353.1277
353.1174
353.1078
353.099
353.0909
353.0838
353.0775
353.0721
353.0676
353.0641
353.0616
353.0601
353.0596
353.0604
353.0623
353.0657
353.0705
353.0769
353.0851
353.0951
353.107
353.1208
353.1364
353.1537
353.1725
353.1845
353.1728
353.1611
353.1496
353.1384
353.1276
353.1173
353.1077
353.0989
353.0909
353.0837
353.0774
353.072
353.0676
353.0641
353.0615
353.06
353.0596
353.0603
353.0623
353.0656
353.0704
353.0769
353.0851
353.0951
353.107
353.1207
353.1364
353.1537
353.1724
353.187
353.1801
353.1732
353.1664
353.1596
353.1531
353.1468
353.1409
353.1354
353.1304
353.1259
353.122
353.1188
353.1162
353.1142
353.1129
353.1122
353.1123
353.1132
353.1148
353.1173
353.1206
353.1248
353.13
353.1362
353.1434
353.1515
353.1606
353.1704
353.1811
353.1868
353.18
353.1731
353.1663
353.1595
353.153
353.1467
353.1408
353.1353
353.1303
353.1259
353.122
353.1187
353.1161
353.1141
353.1128
353.1122
353.1123
353.1131
353.1148
353.1172
353.1206
353.1248
353.13
353.1362
353.1433
353.1515
353.1605
353.1704
353.181
353.1843
353.1726
353.1609
353.1494
353.1382
353.1274
353.1172
353.1076
353.0988
353.0908
353.0836
353.0773
353.0719
353.0675
353.064
353.0615
353.06
353.0595
353.0602
353.0622
353.0655
353.0704
353.0768
353.085
353.095
353.1069
353.1206
353.1362
353.1535
353.1723
353.1843
353.1726
353.1609
353.1494
353.1382
353.1274
353.1172
353.1076
353.0988
353.0908
353.0836
353.0773
353.0719
353.0675
353.064
353.0615
353.06
353.0595
353.0602
353.0622
353.0655
353.0704
353.0768
353.085
353.095
353.1069
353.1206
353.1362
353.1535
353.1723
353.1868
353.18
353.1731
353.1663
353.1595
353.153
353.1467
353.1408
353.1353
353.1303
353.1259
353.122
353.1187
353.1161
353.1141
353.1128
353.1122
353.1123
353.1131
353.1148
353.1172
353.1206
353.1248
353.13
353.1362
353.1433
353.1515
353.1605
353.1704
353.181
353.187
353.1801
353.1732
353.1664
353.1596
353.1531
353.1468
353.1409
353.1354
353.1304
353.1259
353.122
353.1188
353.1162
353.1142
353.1129
353.1122
353.1123
353.1132
353.1148
353.1173
353.1206
353.1248
353.13
353.1362
353.1434
353.1515
353.1606
353.1705
353.1811
353.1845
353.1728
353.1611
353.1496
353.1384
353.1276
353.1173
353.1077
353.0989
353.0909
353.0837
353.0774
353.072
353.0676
353.0641
353.0615
353.06
353.0596
353.0603
353.0623
353.0656
353.0704
353.0769
353.0851
353.0951
353.107
353.1207
353.1364
353.1537
353.1724
353.1846
353.1729
353.1612
353.1497
353.1385
353.1277
353.1174
353.1078
353.099
353.0909
353.0838
353.0775
353.0721
353.0676
353.0641
353.0616
353.0601
353.0596
353.0604
353.0623
353.0657
353.0705
353.0769
353.0851
353.0951
353.107
353.1208
353.1364
353.1537
353.1725
353.1872
353.1804
353.1735
353.1666
353.1599
353.1533
353.1471
353.1411
353.1356
353.1306
353.1262
353.1223
353.119
353.1164
353.1144
353.1131
353.1125
353.1126
353.1134
353.1151
353.1175
353.1208
353.1251
353.1303
353.1365
353.1436
353.1518
353.1608
353.1707
353.1814
353.1876
353.1807
353.1738
353.1669
353.1602
353.1536
353.1473
353.1413
353.1358
353.1308
353.1263
353.1224
353.1192
353.1165
353.1145
353.1132
353.1126
353.1127
353.1135
353.1152
353.1176
353.121
353.1252
353.1304
353.1366
353.1438
353.152
353.161
353.171
353.1816
353.1852
353.1735
353.1618
353.1502
353.1389
353.1281
353.1178
353.1082
353.0993
353.0912
353.084
353.0777
353.0723
353.0678
353.0643
353.0618
353.0603
353.0598
353.0605
353.0625
353.0659
353.0707
353.0772
353.0854
353.0954
353.1074
353.1212
353.1369
353.1542
353.173
353.1854
353.1737
353.162
353.1504
353.1391
353.1283
353.118
353.1084
353.0995
353.0914
353.0842
353.0779
353.0725
353.068
353.0645
353.0619
353.0604
353.0599
353.0607
353.0626
353.066
353.0708
353.0772
353.0854
353.0955
353.1074
353.1212
353.1369
353.1543
353.1732
353.1882
353.1813
353.1744
353.1675
353.1608
353.1542
353.1479
353.1419
353.1364
353.1314
353.1269
353.123
353.1198
353.1171
353.1151
353.1138
353.1132
353.1133
353.1141
353.1157
353.1182
353.1215
353.1258
353.131
353.1372
353.1444
353.1526
353.1616
353.1716
353.1822
353.1888
353.1819
353.175
353.1681
353.1613
353.1547
353.1484
353.1424
353.1369
353.1318
353.1273
353.1234
353.1201
353.1175
353.1155
353.1142
353.1135
353.1136
353.1145
353.1161
353.1186
353.122
353.1263
353.1316
353.1378
353.1451
353.1533
353.1624
353.1724
353.1831
353.1866
353.1748
353.1631
353.1515
353.1402
353.1293
353.1189
353.1093
353.1003
353.0922
353.085
353.0786
353.0732