/*--------------------------------*- C++ -*----------------------------------*\
| =========                 |                                                 |
| \\      /  F ield         | OpenFOAM: The Open Source CFD Toolbox           |
|  \\    /   O peration     | Version:  4.0                                   |
|   \\  /    A nd           | Web:      www.OpenFOAM.org                      |
|    \\/     M anipulation  |                                                 |
\*---------------------------------------------------------------------------*/
FoamFile
{
    version     2.0;
    format      ascii;
    class       volVectorField;
    location    "120/air";
    object      U;
}
// * * * * * * * * * * * * * * * * * * * * * * * * * * * * * * * * * * * * * //

dimensions      [0 1 -1 0 0 0 0];

internalField   nonuniform List<vector> 
39776
(
(0.02229596 0.005787552 0.1624339)
(0.06090185 0.01344573 0.3790512)
(0.08920849 0.01876789 0.5304148)
(0.1103629 0.02259947 0.6390978)
(0.1264113 0.02544032 0.7181563)
(0.1385523 0.02746956 0.7757091)
(0.1458889 0.02871762 0.8170348)
(0.1532569 0.02951126 0.8489456)
(0.1573684 0.0300179 0.8721912)
(0.160166 0.03032174 0.8889336)
(0.1621127 0.03046626 0.9007985)
(0.1633831 0.03049113 0.9090283)
(0.1641975 0.03042786 0.9145595)
(0.1647488 0.03029859 0.9180892)
(0.1651759 0.03012034 0.9201562)
(0.1655894 0.02990703 0.9211807)
(0.1660803 0.02966931 0.9214736)
(0.1667194 0.02941564 0.9212614)
(0.1675604 0.02915317 0.9207061)
(0.1686455 0.02888809 0.91992)
(0.1700092 0.02862503 0.9189756)
(0.1716819 0.02836491 0.9179083)
(0.1736941 0.0281001 0.9167092)
(0.1760829 0.02780433 0.9153023)
(0.1789053 0.02741327 0.9134919)
(0.182217 0.02678793 0.9108597)
(0.1859672 0.02564591 0.9065656)
(0.1903472 0.02342447 0.8989607)
(0.1978444 0.01899509 0.8847898)
(0.2095793 0.01012904 0.8575545)
(0.02272077 0.005650809 0.1676183)
(0.06262999 0.01310853 0.3948785)
(0.09293479 0.0182721 0.5558645)
(0.1163872 0.0219669 0.6726991)
(0.133221 0.02467336 0.7582636)
(0.1479526 0.0267278 0.8231324)
(0.1581013 0.02803051 0.8713893)
(0.1656583 0.0288037 0.9071427)
(0.1712748 0.02928471 0.9333624)
(0.1753066 0.02955167 0.952306)
(0.1781269 0.0296511 0.9657745)
(0.1800721 0.02962491 0.9751698)
(0.1814127 0.02950631 0.9815741)
(0.1823593 0.02931838 0.9858159)
(0.1830752 0.02907687 0.9885225)
(0.183687 0.02879224 0.9901629)
(0.184291 0.02847047 0.9910813)
(0.1849596 0.02811408 0.9915265)
(0.1857464 0.02772313 0.9916753)
(0.186691 0.02729585 0.9916515)
(0.1878234 0.02682912 0.9915401)
(0.1891674 0.02631854 0.9913949)
(0.1907446 0.02575842 0.9912375)
(0.1925802 0.02514138 0.9910398)
(0.1947164 0.02445789 0.9906792)
(0.1972023 0.02369636 0.9898414)
(0.1999734 0.02284601 0.9878286)
(0.2030297 0.02190219 0.9831907)
(0.2086323 0.02086915 0.9729928)
(0.2203091 0.01983032 0.950979)
(0.02271098 -0.005848355 0.1676554)
(0.06258632 -0.01357662 0.3949752)
(0.09283345 -0.01893775 0.5560087)
(0.1162129 -0.02278466 0.6728808)
(0.1329617 -0.02561491 0.7584784)
(0.1476042 -0.027775 0.8233486)
(0.1576563 -0.02917476 0.8716041)
(0.1651145 -0.0300415 0.907355)
(0.1706295 -0.03061393 0.9335665)
(0.1745548 -0.03097192 0.9524987)
(0.1772638 -0.03116583 0.9659576)
(0.1790936 -0.03124035 0.9753476)
(0.1803143 -0.03123058 0.9817521)
(0.1811352 -0.03116099 0.9859993)
(0.1817184 -0.03104833 0.9887161)
(0.1821886 -0.03090394 0.9903709)
(0.1826401 -0.03073476 0.9913083)
(0.1831436 -0.03054395 0.9917783)
(0.1837507 -0.0303319 0.9919594)
(0.184499 -0.03009706 0.991978)
(0.1854165 -0.02983657 0.9919222)
(0.1865251 -0.0295468 0.9918487)
(0.1878449 -0.02922404 0.9917802)
(0.1893998 -0.02886539 0.9916856)
(0.1912319 -0.02847071 0.9914311)
(0.1933925 -0.02804705 0.990677)
(0.1958221 -0.02761869 0.9886771)
(0.1985413 -0.02724061 0.9839006)
(0.2038579 -0.02701551 0.9732765)
(0.2153342 -0.02723536 0.9503797)
(0.02229125 -0.005773772 0.1625074)
(0.06087611 -0.01342597 0.3792298)
(0.08914026 -0.01875452 0.5306722)
(0.1102361 -0.02259792 0.6394148)
(0.126214 -0.02545063 0.7185196)
(0.1382753 -0.02748673 0.7761118)
(0.1455293 -0.02873123 0.8174776)
(0.1528043 -0.02955428 0.8494133)
(0.1568206 -0.03008712 0.8726895)
(0.1595202 -0.03041391 0.889472)
(0.1613675 -0.03057812 0.9013878)
(0.1625395 -0.03061904 0.9096765)
(0.1632563 -0.03056708 0.9152638)
(0.1637079 -0.03044298 0.9188358)
(0.1640285 -0.03026228 0.9209202)
(0.1643214 -0.03003788 0.9219334)
(0.1646744 -0.02978009 0.9221965)
(0.1651601 -0.02949622 0.9219457)
(0.1658341 -0.02919128 0.9213513)
(0.1667401 -0.02886835 0.920532)
(0.167914 -0.02852805 0.9195648)
(0.1693886 -0.0281667 0.9184862)
(0.1711975 -0.02777215 0.9172835)
(0.1733832 -0.02731564 0.9158675)
(0.1760047 -0.02675432 0.9140111)
(0.1791184 -0.02599951 0.9112386)
(0.1827222 -0.0248802 0.9066146)
(0.1871791 -0.02306591 0.8983366)
(0.1948903 -0.01990922 0.8829014)
(0.2064455 -0.01418917 0.8534318)
(0.02228833 0.005767997 0.1625669)
(0.06086196 0.01340776 0.3793522)
(0.08910572 0.01872332 0.5308197)
(0.1101758 0.02255392 0.6395645)
(0.1261269 0.02539484 0.7186622)
(0.138163 0.0274209 0.7762524)
(0.1453906 0.02865834 0.8176375)
(0.1526502 0.02946075 0.8495296)
(0.1566549 0.02997374 0.8727764)
(0.1593509 0.03028149 0.8895454)
(0.1612041 0.03042718 0.9014623)
(0.1623917 0.03044971 0.9097626)
(0.1631322 0.0303788 0.9153631)
(0.1636128 0.03023496 0.9189459)
(0.1639669 0.0300336 0.9210365)
(0.1642977 0.02978756 0.9220503)
(0.1646933 0.02950724 0.9223078)
(0.1652264 0.02920018 0.9220456)
(0.1659528 0.02887195 0.9214352)
(0.1669167 0.02852659 0.920598)
(0.1681545 0.02816617 0.9196147)
(0.1696997 0.02778838 0.9185273)
(0.1715862 0.02738035 0.9173311)
(0.1738555 0.02692401 0.915947)
(0.176569 0.02637205 0.914165)
(0.1797877 0.02562536 0.9115339)
(0.1834763 0.02448957 0.9071525)
(0.1878848 0.02258682 0.8992679)
(0.1955596 0.01916803 0.8844604)
(0.2073625 0.01278623 0.8559865)
(0.02270912 0.005725228 0.1677386)
(0.06257409 0.01328853 0.3951561)
(0.09279887 0.01853217 0.5562439)
(0.1161484 0.02229022 0.6731475)
(0.1328619 0.02504784 0.7587746)
(0.1474737 0.02715212 0.8236003)
(0.1574984 0.02849898 0.8718132)
(0.164938 0.02931187 0.9075239)
(0.1704392 0.02982729 0.9336884)
(0.1743525 0.03012435 0.9525729)
(0.1770514 0.03025152 0.9659878)
(0.1788736 0.03025236 0.9753406)
(0.1800899 0.03016125 0.9817159)
(0.1809097 0.03000217 0.9859417)
(0.1814952 0.02979151 0.9886439)
(0.181971 0.02954024 0.9902893)
(0.1824316 0.02925489 0.9912209)
(0.1829473 0.02893822 0.9916873)
(0.1835699 0.02859026 0.991866)
(0.1843371 0.02820911 0.9918827)
(0.1852771 0.02779154 0.991825)
(0.1864123 0.02733348 0.9917491)
(0.1877631 0.02683025 0.9916775)
(0.1893541 0.02627708 0.9915789)
(0.1912284 0.02566963 0.9913196)
(0.193438 0.02500615 0.9905602)
(0.1959234 0.02429369 0.9885553)
(0.1987011 0.02355797 0.9837756)
(0.2040787 0.0228519 0.9731697)
(0.2156174 0.02234604 0.9503332)
(0.02270796 -0.005755454 0.1677449)
(0.0625689 -0.01336089 0.3951719)
(0.09278677 -0.01863617 0.556267)
(0.1161274 -0.02241929 0.673176)
(0.1328306 -0.02519751 0.7588069)
(0.147431 -0.02732235 0.8236323)
(0.1574429 -0.02868826 0.8718435)
(0.1648689 -0.0295194 0.9075514)
(0.1703556 -0.03005268 0.9337122)
(0.1742536 -0.03036768 0.9525933)
(0.1769367 -0.03051333 0.9660052)
(0.1787427 -0.03053353 0.9753556)
(0.1799421 -0.03046291 0.9817291)
(0.1807443 -0.03032567 0.9859537)
(0.1813112 -0.03013839 0.988655)
(0.1817672 -0.02991218 0.9902997)
(0.1822067 -0.02965374 0.9912312)
(0.1826996 -0.02936596 0.9916982)
(0.1832977 -0.02904888 0.9918785)
(0.1840384 -0.0287006 0.9918983)
(0.1849498 -0.02831785 0.9918455)
(0.186054 -0.02789654 0.9917771)
(0.1873714 -0.02743212 0.9917154)
(0.1889269 -0.02692015 0.9916289)
(0.1907637 -0.02635722 0.9913823)
(0.1929345 -0.02574367 0.9906326)
(0.1953804 -0.02509077 0.9886282)
(0.1981202 -0.02443217 0.9838294)
(0.2034676 -0.02383513 0.9731689)
(0.2149886 -0.0234955 0.9502231)
(0.0222874 -0.00577122 0.1625782)
(0.06085717 -0.01341672 0.3793795)
(0.08909347 -0.0187376 0.5308587)
(0.1101533 -0.02257308 0.639612)
(0.1260922 -0.02541829 0.718716)
(0.1381144 -0.02744787 0.776311)
(0.1453272 -0.02868776 0.8177005)
(0.1525699 -0.02949574 0.849594)
(0.1565572 -0.03001412 0.8728426)
(0.159235 -0.03032713 0.8896141)
(0.1610693 -0.03047805 0.9015349)
(0.1622375 -0.03050574 0.9098401)
(0.1629582 -0.03043986 0.9154453)
(0.163418 -0.03030075 0.9190316)
(0.16375 -0.03010368 0.9211233)
(0.1640565 -0.02986135 0.9221346)
(0.164425 -0.02958412 0.9223878)
(0.1649281 -0.02927935 0.9221207)
(0.1656222 -0.0289522 0.921506)
(0.1665514 -0.02860612 0.9206659)
(0.1677525 -0.02824262 0.919682)
(0.1692589 -0.02786006 0.9185963)
(0.171105 -0.02745044 0.9174034)
(0.1733327 -0.02699288 0.9160227)
(0.1760039 -0.02644146 0.9142408)
(0.1791804 -0.02570313 0.911599)
(0.182827 -0.02459707 0.9071828)
(0.1871941 -0.02277313 0.8992159)
(0.1948256 -0.01953799 0.8842391)
(0.2065787 -0.01355727 0.8554434)
(0.02228726 0.005768988 0.1625895)
(0.06085674 0.01341086 0.3794051)
(0.08909268 0.01872857 0.5308935)
(0.1101522 0.0225612 0.6396527)
(0.1260911 0.02540392 0.7187604)
(0.1381137 0.02743144 0.7763581)
(0.1453268 0.02866988 0.8177505)
(0.1525714 0.02947467 0.8496428)
(0.1565609 0.02999001 0.8728902)
(0.1592417 0.03030004 0.889661)
(0.1610799 0.03044793 0.9015816)
(0.1622532 0.03047247 0.9098868)
(0.1629797 0.03040323 0.9154919)
(0.1634461 0.03026054 0.9190779)
(0.1637852 0.0300597 0.9211694)
(0.1640997 0.02981344 0.9221809)
(0.1644771 0.02953218 0.9224348)
(0.1649904 0.02922337 0.9221687)
(0.1656958 0.02889234 0.9215549)
(0.1666375 0.02854274 0.9207158)
(0.1678523 0.02817636 0.9197324)
(0.1693736 0.02779175 0.9186469)
(0.1712355 0.02738105 0.917454)
(0.1734799 0.02692324 0.9160736)
(0.1761683 0.02637172 0.9142938)
(0.1793621 0.02563166 0.9116591)
(0.1830261 0.02451835 0.9072606)
(0.1874104 0.02267345 0.899332)
(0.1950596 0.01938695 0.8844319)
(0.2068304 0.01329023 0.8557814)
(0.02270788 0.00573713 0.1677604)
(0.06256837 0.01331723 0.3952078)
(0.0927852 0.01857362 0.5563165)
(0.1161243 0.0223418 0.6732346)
(0.1328256 0.02510782 0.7588718)
(0.1474243 0.02721988 0.8236971)
(0.1574345 0.02857387 0.871906)
(0.164859 0.02939356 0.9076102)
(0.1703441 0.02991554 0.9337662)
(0.1742407 0.03021922 0.952643)
(0.1769231 0.03035336 0.9660518)
(0.1787293 0.03036167 0.9754003)
(0.1799297 0.03027852 0.9817726)
(0.1807336 0.0301279 0.9859967)
(0.1813029 0.02992622 0.9886978)
(0.181762 0.02968449 0.9903426)
(0.1822052 0.02940931 0.9912742)
(0.1827027 0.02910352 0.9917411)
(0.1833062 0.0287672 0.9919209)
(0.1840531 0.02839847 0.9919395)
(0.1849714 0.02799416 0.9918845)
(0.1860836 0.02755023 0.9918126)
(0.1874098 0.02706215 0.991746)
(0.1889751 0.02652537 0.9916532)
(0.1908226 0.02593604 0.9913991)
(0.1930048 0.0252935 0.990642)
(0.1954626 0.02460686 0.9886319)
(0.1982144 0.02390571 0.9838323)
(0.2035727 0.02324968 0.9731815)
(0.2151015 0.02282094 0.9502642)
(0.02270769 -0.005743067 0.1677616)
(0.06256746 -0.01333144 0.3952108)
(0.09278301 -0.01859402 0.5563209)
(0.1161205 -0.02236715 0.67324)
(0.1328198 -0.02513726 0.758878)
(0.1474163 -0.02725346 0.8237032)
(0.1574241 -0.02861138 0.8719117)
(0.1648458 -0.02943495 0.9076152)
(0.1703279 -0.02996088 0.9337704)
(0.1742215 -0.03026876 0.9526467)
(0.1769008 -0.03040738 0.9660552)
(0.1787037 -0.03042051 0.9754035)
(0.1799008 -0.03034255 0.9817758)
(0.1807012 -0.03019752 0.9859998)
(0.1812668 -0.03000183 0.9887008)
(0.181722 -0.0297665 0.9903455)
(0.1821611 -0.02949811 0.9912769)
(0.1826542 -0.02919948 0.9917436)
(0.1832528 -0.02887063 0.9919231)
(0.1839946 -0.02850962 0.9919416)
(0.1849075 -0.02811318 0.9918867)
(0.1860137 -0.02767717 0.9918151)
(0.1873337 -0.02719697 0.9917492)
(0.1888923 -0.02666798 0.9916572)
(0.1907327 -0.02608639 0.9914039)
(0.1929076 -0.02545176 0.9906465)
(0.195358 -0.02477373 0.9886338)
(0.1981028 -0.02408299 0.9838268)
(0.2034554 -0.02344124 0.97316)
(0.2149809 -0.02303402 0.9502132)
(0.02228706 -0.005769592 0.1625915)
(0.06085573 -0.01341243 0.3794101)
(0.08909018 -0.01873096 0.5309006)
(0.1101477 -0.02256431 0.6396612)
(0.1260842 -0.02540767 0.71877)
(0.138104 -0.02743575 0.7763685)
(0.1453143 -0.02867467 0.8177617)
(0.1525556 -0.02948027 0.8496542)
(0.1565418 -0.02999649 0.872902)
(0.159219 -0.03030752 0.8896733)
(0.1610535 -0.03045656 0.9015946)
(0.1622229 -0.03048244 0.9099007)
(0.1629454 -0.03041474 0.9155066)
(0.1634075 -0.03027377 0.919093)
(0.1637419 -0.0300748 0.9211844)
(0.1640512 -0.02983053 0.9221952)
(0.1644229 -0.02955137 0.9224477)
(0.1649297 -0.02924471 0.9221799)
(0.1656281 -0.02891575 0.9215643)
(0.166562 -0.028568 0.9207235)
(0.1677685 -0.02820308 0.9197387)
(0.1692811 -0.02781939 0.9186521)
(0.1711337 -0.02740896 0.9174585)
(0.1733686 -0.02695083 0.9160774)
(0.1760474 -0.02639875 0.9142961)
(0.1792316 -0.02565885 0.9116578)
(0.1828863 -0.02454851 0.9072505)
(0.1872618 -0.02271385 0.8993034)
(0.1949024 -0.01945396 0.8843669)
(0.206665 -0.01341898 0.8556494)
(0.02228696 0.005769475 0.1625952)
(0.06085528 0.01341219 0.3794186)
(0.08908901 0.01873065 0.5309123)
(0.1101456 0.02256396 0.6396749)
(0.1260809 0.02540729 0.7187849)
(0.1380997 0.02743535 0.7763843)
(0.1453087 0.0286743 0.8177785)
(0.152549 0.0294797 0.8496706)
(0.1565343 0.02999573 0.8729182)
(0.1592108 0.03030655 0.8896899)
(0.161045 0.03045536 0.9016121)
(0.1622144 0.03048097 0.9099196)
(0.1629374 0.0304129 0.9155268)
(0.1634 0.03027144 0.9191142)
(0.1637351 0.03007186 0.9212059)
(0.164045 0.02982685 0.9222163)
(0.1644172 0.02954684 0.9224679)
(0.1649244 0.02923926 0.922199)
(0.1656233 0.02890934 0.9215824)
(0.1665578 0.02856063 0.9207406)
(0.1677651 0.02819476 0.919755)
(0.1692786 0.02781015 0.918668)
(0.1711325 0.02739883 0.9174741)
(0.1733688 0.02693983 0.916093)
(0.1760493 0.02638677 0.914312)
(0.1792355 0.02564552 0.9116741)
(0.1828925 0.02453293 0.9072678)
(0.1872704 0.02269398 0.8993222)
(0.1949142 0.01942547 0.8843887)
(0.206681 0.01337282 0.855677)
(0.0227076 0.005740307 0.1677662)
(0.06256705 0.01332494 0.3952215)
(0.092782 0.01858482 0.5563359)
(0.1161187 0.02235584 0.6732579)
(0.1328171 0.02512429 0.7588978)
(0.1474126 0.02723862 0.8237229)
(0.1574193 0.02859478 0.8719307)
(0.1648401 0.02941662 0.9076329)
(0.1703212 0.02994073 0.9337861)
(0.1742137 0.03024667 0.95266)
(0.176892 0.03038323 0.9660659)
(0.1786941 0.03039416 0.9754114)
(0.1798904 0.03031384 0.9817807)
(0.18069 0.03016627 0.9860015)
(0.181255 0.02996786 0.9886991)
(0.1817096 0.0297296 0.9903402)
(0.1821481 0.0294581 0.991268)
(0.1826407 0.0291562 0.9917312)
(0.183239 0.02882392 0.9919075)
(0.1839805 0.02845933 0.9919231)
(0.1848933 0.02805919 0.9918658)
(0.1859996 0.02761936 0.9917924)
(0.1873199 0.02713525 0.9917251)
(0.188879 0.02660221 0.9916323)
(0.1907202 0.0260164 0.9913784)
(0.1928962 0.02537723 0.9906203)
(0.195348 0.02469405 0.9886063)
(0.1980944 0.02399696 0.9837962)
(0.2034491 0.02334656 0.9731224)
(0.2149768 0.02292654 0.9501616)
(0.0227076 -0.005740293 0.1677662)
(0.06256706 -0.01332491 0.3952216)
(0.09278201 -0.01858477 0.5563359)
(0.1161187 -0.02235578 0.6732579)
(0.1328171 -0.02512421 0.7588978)
(0.1474126 -0.02723853 0.823723)
(0.1574194 -0.02859467 0.8719307)
(0.1648401 -0.02941649 0.9076329)
(0.1703212 -0.02994059 0.933786)
(0.1742137 -0.0302465 0.95266)
(0.1768921 -0.03038303 0.9660659)
(0.1786941 -0.03039394 0.9754113)
(0.1798904 -0.0303136 0.9817806)
(0.1806901 -0.030166 0.9860013)
(0.181255 -0.02996756 0.9886988)
(0.1817096 -0.02972928 0.9903399)
(0.1821481 -0.02945776 0.9912677)
(0.1826408 -0.02915583 0.9917308)
(0.183239 -0.02882352 0.9919071)
(0.1839806 -0.02845892 0.9919226)
(0.1848934 -0.02805876 0.9918653)
(0.1859997 -0.02761891 0.9917918)
(0.18732 -0.02713478 0.9917246)
(0.1888791 -0.02660173 0.9916317)
(0.1907204 -0.02601591 0.9913778)
(0.1928963 -0.02537673 0.9906198)
(0.1953482 -0.02469353 0.9886059)
(0.1980946 -0.0239964 0.9837958)
(0.2034493 -0.02334592 0.9731221)
(0.2149771 -0.02292574 0.9501615)
(0.02228696 -0.005769475 0.1625952)
(0.06085528 -0.01341219 0.3794186)
(0.08908901 -0.01873065 0.5309123)
(0.1101456 -0.02256395 0.6396749)
(0.1260809 -0.02540727 0.7187849)
(0.1380997 -0.02743533 0.7763843)
(0.1453087 -0.02867428 0.8177785)
(0.152549 -0.02947967 0.8496706)
(0.1565343 -0.02999569 0.8729182)
(0.1592108 -0.03030651 0.88969)
(0.161045 -0.03045532 0.9016122)
(0.1622145 -0.03048093 0.9099197)
(0.1629374 -0.03041286 0.9155269)
(0.1634001 -0.03027141 0.9191143)
(0.1637352 -0.03007183 0.921206)
(0.1640451 -0.02982682 0.9222163)
(0.1644173 -0.02954682 0.9224679)
(0.1649246 -0.02923924 0.922199)
(0.1656234 -0.02890933 0.9215824)
(0.166558 -0.02856062 0.9207406)
(0.1677653 -0.02819474 0.919755)
(0.1692788 -0.02781014 0.918668)
(0.1711327 -0.02739883 0.917474)
(0.173369 -0.02693983 0.916093)
(0.1760496 -0.02638678 0.914312)
(0.1792358 -0.02564553 0.9116741)
(0.1828928 -0.02453293 0.9072678)
(0.1872708 -0.02269395 0.8993223)
(0.1949145 -0.01942534 0.884389)
(0.2066814 -0.01337248 0.8556775)
(0.02228706 0.005769661 0.1625917)
(0.06085573 0.01341263 0.3794106)
(0.08909015 0.01873128 0.5309014)
(0.1101477 0.02256475 0.6396623)
(0.1260841 0.02540823 0.7187713)
(0.1381039 0.0274364 0.77637)
(0.1453141 0.02867539 0.8177632)
(0.1525554 0.02948116 0.8496559)
(0.1565414 0.02999753 0.8729037)
(0.1592185 0.03030868 0.889675)
(0.1610529 0.0304578 0.9015962)
(0.1622222 0.03048372 0.9099022)
(0.1629446 0.03041599 0.915508)
(0.1634065 0.03027493 0.9190943)
(0.1637409 0.0300758 0.9211856)
(0.1640501 0.02983131 0.9221962)
(0.1644217 0.02955185 0.9224486)
(0.1649285 0.02924482 0.9221808)
(0.1656268 0.02891547 0.9215653)
(0.1665608 0.0285673 0.9207247)
(0.1677673 0.02820197 0.9197401)
(0.1692799 0.02781789 0.9186538)
(0.1711327 0.02740714 0.9174605)
(0.1733677 0.02694876 0.9160797)
(0.1760466 0.02639653 0.9142986)
(0.179231 0.02565659 0.9116604)
(0.1828858 0.02454632 0.9072531)
(0.1872613 0.02271186 0.8993059)
(0.194902 0.01945233 0.884369)
(0.2066647 0.01341794 0.8556508)
(0.02270768 0.005743085 0.1677617)
(0.06256746 0.01333147 0.3952111)
(0.09278301 0.01859404 0.5563213)
(0.1161205 0.02236715 0.6732405)
(0.1328199 0.02513725 0.7588785)
(0.1474163 0.02725339 0.8237037)
(0.1574241 0.02861126 0.8719122)
(0.1648459 0.02943479 0.9076157)
(0.170328 0.02996069 0.9337709)
(0.1742215 0.03026852 0.9526471)
(0.1769008 0.03040709 0.9660555)
(0.1787038 0.03042016 0.9754037)
(0.1799009 0.03034213 0.981776)
(0.1807013 0.03019701 0.986)
(0.1812669 0.03000122 0.988701)
(0.1817222 0.02976577 0.9903457)
(0.1821613 0.02949725 0.9912772)
(0.1826544 0.0291985 0.9917439)
(0.1832531 0.02886953 0.9919236)
(0.1839949 0.02850842 0.9919422)
(0.1849077 0.0281119 0.9918875)
(0.186014 0.02767585 0.991816)
(0.1873339 0.02719567 0.9917502)
(0.1888924 0.02666673 0.9916584)
(0.1907328 0.02608526 0.9914051)
(0.1929076 0.02545082 0.9906476)
(0.1953579 0.02477304 0.9886348)
(0.1981025 0.02408264 0.9838275)
(0.203455 0.02344134 0.9731602)
(0.2149804 0.02303479 0.9502124)
(0.02270788 -0.005737103 0.1677606)
(0.06256836 -0.01331718 0.3952081)
(0.09278517 -0.01857355 0.556317)
(0.1161243 -0.02234173 0.6732352)
(0.1328256 -0.02510776 0.7588725)
(0.1474242 -0.02721979 0.8236978)
(0.1574343 -0.02857377 0.8719067)
(0.1648587 -0.02939346 0.9076108)
(0.1703436 -0.02991546 0.9337666)
(0.1742401 -0.0302192 0.9526433)
(0.1769224 -0.03035343 0.9660521)
(0.1787284 -0.03036185 0.9754005)
(0.1799287 -0.03027885 0.9817728)
(0.1807324 -0.03012839 0.9859967)
(0.1813016 -0.02992688 0.9886978)
(0.1817606 -0.02968533 0.9903425)
(0.1822037 -0.02941031 0.991274)
(0.1827012 -0.02910468 0.9917408)
(0.1833045 -0.02876847 0.9919204)
(0.1840514 -0.02839983 0.9919389)
(0.1849697 -0.02799555 0.9918838)
(0.1860818 -0.0275516 0.9918117)
(0.187408 -0.02706345 0.991745)
(0.1889733 -0.02652653 0.9916521)
(0.1908208 -0.02593702 0.9913979)
(0.193003 -0.02529424 0.9906406)
(0.1954608 -0.02460732 0.9886303)
(0.1982127 -0.02390583 0.9838304)
(0.203571 -0.02324938 0.973179)
(0.2150999 -0.02282005 0.9502609)
(0.02228727 -0.005768916 0.1625895)
(0.06085675 -0.01341066 0.3794051)
(0.0890927 -0.01872824 0.5308934)
(0.1101523 -0.02256074 0.6396525)
(0.1260911 -0.02540334 0.7187602)
(0.1381137 -0.02743077 0.7763579)
(0.1453269 -0.02866918 0.8177502)
(0.1525716 -0.02947379 0.8496425)
(0.1565612 -0.02998898 0.87289)
(0.159242 -0.03029891 0.889661)
(0.1610804 -0.03044674 0.9015817)
(0.1622538 -0.03047128 0.9098871)
(0.1629804 -0.03040209 0.9154924)
(0.1634469 -0.03025953 0.9190786)
(0.1637861 -0.03005889 0.9211702)
(0.1641006 -0.0298129 0.9221819)
(0.1644781 -0.02953198 0.9224358)
(0.1649914 -0.02922357 0.9221696)
(0.1656968 -0.02889297 0.9215558)
(0.1666384 -0.0285438 0.9207165)
(0.1678531 -0.02817779 0.9197329)
(0.1693743 -0.02779349 0.9186472)
(0.171236 -0.027383 0.917454)
(0.1734802 -0.02692527 0.9160734)
(0.1761685 -0.02637371 0.9142933)
(0.1793621 -0.02563352 0.9116585)
(0.183026 -0.02451999 0.9072598)
(0.1874102 -0.02267483 0.899331)
(0.1950593 -0.01938806 0.8844307)
(0.2068301 -0.01329109 0.8557801)
(0.0222874 0.00577119 0.1625783)
(0.06085716 0.01341665 0.3793796)
(0.08909343 0.0187375 0.5308588)
(0.1101533 0.02257295 0.6396122)
(0.1260921 0.02541813 0.7187162)
(0.1381142 0.02744769 0.7763112)
(0.1453269 0.02868756 0.8177007)
(0.1525697 0.0294955 0.8495942)
(0.156557 0.03001384 0.8728428)
(0.1592347 0.03032682 0.8896143)
(0.1610689 0.03047771 0.9015352)
(0.1622371 0.03050538 0.9098404)
(0.1629577 0.03043947 0.9154457)
(0.1634175 0.03030034 0.9190321)
(0.1637495 0.03010326 0.9211238)
(0.1640559 0.0298609 0.9221352)
(0.1644244 0.02958365 0.9223884)
(0.1649275 0.02927886 0.9221212)
(0.1656215 0.02895168 0.9215065)
(0.1665506 0.02860556 0.9206664)
(0.1677516 0.02824203 0.9196823)
(0.169258 0.02785942 0.9185967)
(0.171104 0.02744975 0.9174038)
(0.1733316 0.02699213 0.9160231)
(0.1760027 0.02644066 0.914241)
(0.179179 0.02570226 0.9115993)
(0.1828256 0.02459614 0.907183)
(0.1871926 0.02277214 0.8992159)
(0.1948241 0.01953699 0.8842388)
(0.2065772 0.01355636 0.8554425)
(0.02270795 0.005755502 0.167745)
(0.06256887 0.01336101 0.3951721)
(0.0927867 0.01863634 0.5562673)
(0.1161272 0.0224195 0.6731763)
(0.1328304 0.02519778 0.7588073)
(0.1474307 0.02732265 0.8236328)
(0.1574426 0.02868861 0.8718439)
(0.1648684 0.02951981 0.9075518)
(0.1703551 0.03005315 0.9337126)
(0.174253 0.03036825 0.9525937)
(0.176936 0.03051399 0.9660055)
(0.1787419 0.0305343 0.975356)
(0.1799412 0.0304638 0.9817294)
(0.1807433 0.03032667 0.985954)
(0.1813101 0.03013949 0.9886553)
(0.181766 0.0299134 0.9903)
(0.1822053 0.02965506 0.9912316)
(0.1826981 0.02936738 0.9916986)
(0.1832961 0.0290504 0.991879)
(0.1840367 0.02870221 0.9918989)
(0.1849479 0.02831957 0.9918462)
(0.1860519 0.02789837 0.9917779)
(0.1873692 0.02743407 0.9917164)
(0.1889246 0.02692224 0.99163)
(0.1907612 0.02635946 0.9913834)
(0.1929318 0.02574606 0.9906337)
(0.1953775 0.02509331 0.9886291)
(0.1981171 0.02443481 0.9838299)
(0.2034643 0.02383778 0.9731686)
(0.2149852 0.02349794 0.9502214)
(0.02270912 -0.005725165 0.1677387)
(0.0625741 -0.01328837 0.3951562)
(0.09279891 -0.01853193 0.5562441)
(0.1161484 -0.02228989 0.6731477)
(0.132862 -0.02504744 0.7587748)
(0.1474738 -0.02715163 0.8236004)
(0.1574985 -0.02849839 0.8718132)
(0.1649381 -0.02931118 0.9075238)
(0.1704393 -0.02982649 0.9336882)
(0.1743526 -0.03012345 0.9525728)
(0.1770515 -0.03025052 0.9659877)
(0.1788738 -0.03025127 0.9753406)
(0.1800901 -0.03016008 0.981716)
(0.18091 -0.03000092 0.9859421)
(0.1814956 -0.02979018 0.9886445)
(0.1819716 -0.02953883 0.9902901)
(0.1824322 -0.0292534 0.991222)
(0.1829481 -0.02893665 0.9916887)
(0.1835708 -0.0285886 0.9918677)
(0.1843382 -0.02820734 0.9918848)
(0.1852784 -0.02778967 0.9918273)
(0.1864137 -0.02733148 0.9917517)
(0.1877647 -0.02682811 0.9916803)
(0.1893559 -0.02627478 0.9915819)
(0.1912303 -0.02566715 0.9913227)
(0.1934401 -0.02500348 0.9905634)
(0.1959257 -0.02429085 0.9885587)
(0.1987036 -0.02355502 0.9837793)
(0.2040813 -0.02284895 0.973174)
(0.2156201 -0.02234337 0.9503387)
(0.02228832 -0.005768022 0.1625669)
(0.06086196 -0.01340782 0.3793524)
(0.08910574 -0.01872341 0.53082)
(0.1101759 -0.02255404 0.6395648)
(0.126127 -0.02539498 0.7186626)
(0.1381631 -0.02742107 0.7762529)
(0.1453907 -0.02865854 0.8176379)
(0.1526504 -0.02946101 0.8495301)
(0.1566551 -0.02997406 0.872777)
(0.1593511 -0.03028186 0.8895459)
(0.1612043 -0.03042761 0.9014628)
(0.162392 -0.03045018 0.9097631)
(0.1631325 -0.03037932 0.9153635)
(0.1636131 -0.03023551 0.9189463)
(0.1639672 -0.03003418 0.9210369)
(0.164298 -0.02978817 0.9220506)
(0.1646937 -0.02950787 0.9223082)
(0.1652268 -0.02920084 0.9220461)
(0.1659533 -0.02887263 0.9214358)
(0.1669172 -0.02852729 0.9205987)
(0.1681551 -0.02816688 0.9196154)
(0.1697003 -0.0277891 0.9185281)
(0.1715869 -0.02738109 0.917332)
(0.1738563 -0.02692476 0.9159479)
(0.1765698 -0.02637282 0.914166)
(0.1797886 -0.02562613 0.911535)
(0.1834773 -0.02449033 0.9071538)
(0.1878858 -0.02258755 0.8992694)
(0.1955607 -0.01916872 0.8844623)
(0.2073637 -0.01278685 0.855989)
(0.02229126 0.005773764 0.1625074)
(0.06087612 0.01342596 0.3792298)
(0.08914028 0.01875452 0.5306721)
(0.1102361 0.02259792 0.6394147)
(0.1262141 0.02545062 0.7185194)
(0.1382754 0.02748671 0.7761116)
(0.1455294 0.02873118 0.8174774)
(0.1528044 0.02955421 0.8494131)
(0.1568208 0.03008702 0.8726892)
(0.1595203 0.03041379 0.8894717)
(0.1613676 0.03057795 0.9013874)
(0.1625395 0.03061883 0.9096761)
(0.1632563 0.03056682 0.9152632)
(0.1637078 0.0304427 0.9188352)
(0.1640284 0.03026197 0.9209196)
(0.1643212 0.03003754 0.9219328)
(0.1646742 0.02977974 0.9221961)
(0.1651599 0.02949584 0.9219454)
(0.1658339 0.02919087 0.9213511)
(0.1667399 0.02886791 0.9205319)
(0.1679139 0.02852759 0.9195648)
(0.1693885 0.02816622 0.9184863)
(0.1711974 0.02777166 0.9172837)
(0.1733831 0.02731518 0.9158677)
(0.1760046 0.0267539 0.9140113)
(0.1791183 0.02599915 0.9112388)
(0.1827221 0.0248799 0.9066148)
(0.1871791 0.02306563 0.8983367)
(0.1948903 0.01990889 0.8829015)
(0.2064456 0.01418863 0.8534318)
(0.02271097 0.005848337 0.1676553)
(0.06258631 0.01357659 0.394975)
(0.09283343 0.01893772 0.5560085)
(0.1162129 0.02278464 0.6728805)
(0.1329617 0.02561491 0.7584781)
(0.1476042 0.02777507 0.8233483)
(0.1576563 0.02917492 0.8716041)
(0.1651146 0.03004175 0.9073552)
(0.1706297 0.03061426 0.9335669)
(0.1745551 0.03097234 0.9524993)
(0.1772642 0.03116632 0.9659584)
(0.179094 0.0312409 0.9753486)
(0.1803147 0.03123121 0.9817534)
(0.1811357 0.03116167 0.9860008)
(0.181719 0.03104905 0.9887178)
(0.1821891 0.0309047 0.9903727)
(0.1826407 0.03073554 0.9913103)
(0.1831442 0.03054473 0.9917804)
(0.1837513 0.03033267 0.9919615)
(0.1844996 0.03009779 0.9919802)
(0.185417 0.02983723 0.9919243)
(0.1865257 0.02954737 0.9918507)
(0.1878454 0.0292245 0.9917821)
(0.1894004 0.02886571 0.9916873)
(0.1912325 0.02847088 0.9914326)
(0.193393 0.02804708 0.9906783)
(0.1958226 0.02761858 0.9886782)
(0.1985418 0.02724038 0.9839016)
(0.2038584 0.02701519 0.9732773)
(0.2153346 0.02723503 0.9503804)
(0.02272077 -0.005650821 0.1676182)
(0.06262998 -0.01310858 0.3948784)
(0.09293477 -0.01827218 0.5558644)
(0.1163871 -0.02196702 0.672699)
(0.133221 -0.02467348 0.7582635)
(0.1479526 -0.02672795 0.8231323)
(0.1581014 -0.02803067 0.8713893)
(0.1656584 -0.02880384 0.9071429)
(0.171275 -0.0292848 0.9333628)
(0.1753069 -0.02955167 0.9523064)
(0.1781272 -0.02965099 0.965775)
(0.1800724 -0.02962467 0.9751702)
(0.1814131 -0.02950595 0.9815746)
(0.1823597 -0.02931789 0.9858163)
(0.1830757 -0.02907627 0.9885229)
(0.1836875 -0.02879156 0.9901632)
(0.1842915 -0.02846973 0.9910815)
(0.1849601 -0.02811332 0.9915267)
(0.1857469 -0.02772237 0.9916753)
(0.1866915 -0.02729514 0.9916514)
(0.1878238 -0.02682847 0.9915399)
(0.1891678 -0.02631798 0.9913946)
(0.1907449 -0.02575796 0.9912371)
(0.1925805 -0.02514105 0.9910393)
(0.1947166 -0.02445769 0.9906786)
(0.1972025 -0.02369629 0.9898408)
(0.1999734 -0.02284608 0.9878281)
(0.2030297 -0.02190239 0.9831903)
(0.2086322 -0.02086947 0.9729924)
(0.220309 -0.01983075 0.9509783)
(0.02229595 -0.005787547 0.1624339)
(0.06090184 -0.01344573 0.3790512)
(0.08920848 -0.0187679 0.5304148)
(0.1103629 -0.0225995 0.6390978)
(0.1264113 -0.02544037 0.7181562)
(0.1385523 -0.02746961 0.7757091)
(0.1458888 -0.02871767 0.8170347)
(0.1532569 -0.02951134 0.8489456)
(0.1573683 -0.03001799 0.8721912)
(0.1601659 -0.03032183 0.8889336)
(0.1621127 -0.03046636 0.9007985)
(0.163383 -0.03049123 0.9090283)
(0.1641975 -0.03042795 0.9145595)
(0.1647487 -0.03029867 0.9180891)
(0.1651759 -0.03012041 0.9201562)
(0.1655893 -0.0299071 0.9211807)
(0.1660803 -0.02966937 0.9214737)
(0.1667194 -0.02941568 0.9212616)
(0.1675605 -0.02915319 0.9207063)
(0.1686456 -0.02888809 0.9199203)
(0.1700093 -0.02862499 0.9189759)
(0.1716821 -0.02836483 0.9179086)
(0.1736943 -0.02809997 0.9167096)
(0.1760832 -0.02780415 0.9153026)
(0.1789055 -0.02741304 0.9134923)
(0.1822172 -0.02678764 0.9108601)
(0.1859675 -0.02564557 0.906566)
(0.1903474 -0.02342408 0.8989611)
(0.1978446 -0.01899467 0.8847903)
(0.2095795 -0.01012861 0.857555)
(0.0009317536 0.003532455 0.09324985)
(0.004085782 0.009515983 0.254989)
(0.008790924 0.01452052 0.3939988)
(0.01370585 0.01861573 0.5121093)
(0.01805323 0.02187406 0.6112019)
(0.02155981 0.02450549 0.6932244)
(0.02572037 0.02672966 0.7601731)
(0.02652517 0.02841511 0.8113972)
(0.02797982 0.02957921 0.8512626)
(0.02855258 0.0302798 0.8813748)
(0.0283168 0.03059405 0.9031999)
(0.02750186 0.03059979 0.918078)
(0.02621286 0.03037311 0.9274217)
(0.02457581 0.02999614 0.9328259)
(0.02267807 0.02950716 0.9349964)
(0.02058449 0.02891185 0.9342005)
(0.01838655 0.02822327 0.9310528)
(0.01614668 0.02743958 0.9260459)
(0.01392433 0.02654223 0.919558)
(0.01177888 0.0254933 0.9118576)
(0.009770321 0.02423226 0.903106)
(0.007963032 0.02267188 0.8933568)
(0.006427984 0.0206933 0.8825494)
(0.005239824 0.01814321 0.8704986)
(0.004485659 0.01483678 0.8568971)
(0.00428118 0.0105572 0.841324)
(0.004727348 0.005052197 0.8232517)
(0.005754374 -0.0019592 0.8020737)
(0.007492504 -0.01076043 0.7771584)
(0.01234729 -0.02164395 0.7479819)
(0.00108009 0.003399983 0.1052344)
(0.00487031 0.009176316 0.2918045)
(0.01063944 0.01401932 0.4544834)
(0.01680879 0.01798782 0.5939795)