/*--------------------------------*- C++ -*----------------------------------*\
| =========                 |                                                 |
| \\      /  F ield         | OpenFOAM: The Open Source CFD Toolbox           |
|  \\    /   O peration     | Version:  4.0                                   |
|   \\  /    A nd           | Web:      www.OpenFOAM.org                      |
|    \\/     M anipulation  |                                                 |
\*---------------------------------------------------------------------------*/
FoamFile
{
    version     2.0;
    format      ascii;
    class       volVectorField;
    location    "120/air";
    object      U;
}
// * * * * * * * * * * * * * * * * * * * * * * * * * * * * * * * * * * * * * //

dimensions      [0 1 -1 0 0 0 0];

internalField   nonuniform List<vector> 
39776
(
(0.3170106 0.01408891 16.91017)
(0.7588893 0.02285318 24.03526)
(0.8827829 0.02105293 24.93192)
(0.896546 0.02102143 25.22019)
(0.8339098 0.02462361 25.2456)
(0.7989632 0.02647469 25.22855)
(0.7760452 0.02648222 25.23204)
(0.7511884 0.02569459 25.2429)
(0.7261143 0.02420291 25.2272)
(0.7026225 0.02264562 25.20342)
(0.6805864 0.0212036 25.17935)
(0.6600003 0.01991376 25.15716)
(0.6410909 0.01888177 25.1416)
(0.6235199 0.01790223 25.12747)
(0.6071862 0.01683053 25.11192)
(0.59205 0.01565368 25.09635)
(0.5781154 0.01439984 25.08184)
(0.5653098 0.01301442 25.06729)
(0.5536787 0.01149223 25.05256)
(0.5430537 0.009845108 25.03787)
(0.5336348 0.008065887 25.02283)
(0.5251545 0.006225497 25.00815)
(0.5177474 0.004180834 24.9926)
(0.5118422 0.002457703 24.98037)
(0.5053523 0.000589953 24.97124)
(0.5044877 -2.469184e-05 24.96836)
(0.4995827 -0.001028371 24.96361)
(0.5028702 0.004242862 24.93343)
(0.3370642 0.03817974 24.73035)
(0.8107369 0.2663347 23.32414)
(0.3175246 0.01123633 16.97066)
(0.7582171 0.02190865 24.10482)
(0.8833994 0.01420006 24.94508)
(0.9086312 0.01305339 25.27239)
(0.8366923 0.02444149 25.31956)
(0.8039821 0.0313442 25.34684)
(0.7819377 0.03458167 25.368)
(0.7562914 0.0357883 25.38281)
(0.7317775 0.03519416 25.38452)
(0.7087287 0.03371255 25.37902)
(0.6861321 0.03167911 25.3685)
(0.6636692 0.02876963 25.34914)
(0.6437673 0.02630498 25.33679)
(0.6258423 0.02411601 25.32992)
(0.6083396 0.02108291 25.31662)
(0.5915024 0.01735122 25.29924)
(0.5756939 0.01319085 25.28147)
(0.5613426 0.009101162 25.26819)
(0.5482453 0.004922981 25.25791)
(0.5361762 0.0002825617 25.24756)
(0.5250018 -0.005191692 25.2345)
(0.5148652 -0.01151663 25.21998)
(0.5057336 -0.01856748 25.20642)
(0.4979773 -0.02644009 25.1945)
(0.4906571 -0.03556236 25.18399)
(0.4857782 -0.04577391 25.17338)
(0.4811815 -0.05839055 25.16224)
(0.4790405 -0.0664596 25.13798)
(0.3793133 -0.06430662 24.97714)
(0.7774524 0.02363869 23.6637)
(0.316296 -0.02015762 16.96524)
(0.7566408 -0.02766382 24.08395)
(0.8805833 -0.03238851 24.92539)
(0.8664188 -0.03062053 25.3201)
(0.8306896 -0.02562588 25.37973)
(0.8038023 -0.01947825 25.38537)
(0.7790235 -0.01391198 25.39165)
(0.7525098 -0.009973912 25.39932)
(0.7271943 -0.008200266 25.3959)
(0.7036927 -0.00749438 25.38691)
(0.6803908 -0.006852196 25.38)
(0.6570883 -0.00630431 25.37286)
(0.634696 -0.00573895 25.36563)
(0.6133052 -0.004861376 25.36106)
(0.5903051 -0.004554658 25.34882)
(0.5676953 -0.003944902 25.33893)
(0.5447681 -0.00339115 25.32727)
(0.5216936 -0.002635367 25.31642)
(0.4978022 -0.001820771 25.30466)
(0.4732371 -0.0006765567 25.29454)
(0.448343 0.001145981 25.28889)
(0.4226326 0.003698753 25.2869)
(0.39518 0.006806093 25.28555)
(0.3656508 0.01080935 25.28597)
(0.3339068 0.01592191 25.28665)
(0.2993154 0.02311273 25.28641)
(0.2597759 0.03506481 25.27097)
(0.2055393 0.06671837 25.1851)
(0.1851384 0.1650323 24.644)
(0.2862218 0.4612363 21.52284)
(0.3165988 -0.01727485 16.9064)
(0.7601187 -0.02662634 24.03147)
(0.8670008 -0.02989968 25.3543)
(0.8527393 -0.02971752 25.42441)
(0.8207901 -0.02842008 25.37133)
(0.803069 -0.02685743 25.30958)
(0.7833445 -0.02442161 25.28221)
(0.7612732 -0.02201174 25.28016)
(0.7396851 -0.02011069 25.27581)
(0.7185008 -0.01871334 25.25875)
(0.6986538 -0.01729556 25.24101)
(0.6821978 -0.01546642 25.23282)
(0.6672895 -0.01343291 25.22411)
(0.6537798 -0.0111559 25.21468)
(0.6412574 -0.008588768 25.20281)
(0.6305665 -0.005531996 25.19235)
(0.621946 -0.001858376 25.1839)
(0.6147151 0.002435322 25.17316)
(0.6091022 0.007520789 25.16137)
(0.6057118 0.01364479 25.15158)
(0.604842 0.02100009 25.14475)
(0.6067051 0.02971928 25.14036)
(0.6111717 0.03995117 25.13743)
(0.6188997 0.05174332 25.13558)
(0.6289172 0.06556699 25.1347)
(0.6442319 0.08080344 25.13396)
(0.6599009 0.0998946 25.13544)
(0.684747 0.1184204 25.1273)
(0.7044181 0.1483062 25.08904)
(0.7947817 0.07462909 23.82535)
(0.3204836 0.01792104 16.86885)
(0.773214 0.02844601 24.06429)
(0.8955506 0.03148905 25.42277)
(0.8897535 0.03175048 25.4339)
(0.8632027 0.03121394 25.35118)
(0.8462648 0.03049758 25.28863)
(0.8300592 0.02979852 25.26796)
(0.8134843 0.02893039 25.26264)
(0.79474 0.02797831 25.24681)
(0.7767668 0.02686067 25.23091)
(0.7583015 0.02581457 25.20948)
(0.7408712 0.0247393 25.1873)
(0.7268421 0.02357599 25.17207)
(0.7167271 0.02230232 25.16444)
(0.7092816 0.02090804 25.15993)
(0.7031258 0.01940203 25.15416)
(0.6980284 0.01777662 25.14657)
(0.6942064 0.01601683 25.13785)
(0.6919337 0.01412475 25.12877)
(0.6914199 0.01210289 25.11978)
(0.6926355 0.009938019 25.11089)
(0.695734 0.0076211 25.10199)
(0.700251 0.005098645 25.09301)
(0.7073912 0.002470639 25.08405)
(0.7148753 -0.0006103805 25.07541)
(0.7276957 -0.003357893 25.06597)
(0.7365792 -0.007758431 25.05898)
(0.7572315 -0.009129038 25.04479)
(0.7652984 -0.00268176 24.97348)
(0.8391916 0.07343585 24.55992)
(0.3210849 0.01664031 16.92218)
(0.7747357 0.02664818 24.1178)
(0.9057778 0.02529684 25.01838)
(0.8960169 0.02686586 25.30407)
(0.8713724 0.02910012 25.36915)
(0.8528493 0.03091349 25.36807)
(0.8407964 0.03142588 25.36679)
(0.8200869 0.03081296 25.36644)
(0.7988538 0.02956477 25.36189)
(0.7787422 0.0277939 25.34753)
(0.7640237 0.02596729 25.33885)
(0.7503099 0.02404516 25.32955)
(0.7373943 0.02199904 25.32026)
(0.7267887 0.01992994 25.31509)
(0.7175987 0.01772022 25.31039)
(0.7090547 0.015236 25.30347)
(0.7023098 0.01248067 25.29841)
(0.6963778 0.009350598 25.29239)
(0.6912759 0.005804758 25.2847)
(0.6874186 0.001785135 25.27674)
(0.6848801 -0.002789463 25.26943)
(0.6838338 -0.008002775 25.26308)
(0.6839358 -0.01400265 25.25747)
(0.6859997 -0.02085251 25.25252)
(0.6884555 -0.02894406 25.24856)
(0.6946433 -0.03798942 25.24321)
(0.6977922 -0.04951754 25.24128)
(0.7084672 -0.06060055 25.22669)
(0.7042903 -0.07567329 25.19916)
(0.7767968 -0.0430705 23.97368)
(0.3204644 -0.01743089 16.92506)
(0.7727183 -0.0281393 24.12207)
(0.9077227 -0.02743418 24.95067)
(0.9371585 -0.02760207 25.2299)
(0.8835209 -0.02896265 25.32553)
(0.8569384 -0.02801111 25.34245)
(0.8362702 -0.02598222 25.35087)
(0.8157104 -0.02377723 25.36351)
(0.7966133 -0.02182657 25.37522)
(0.7792248 -0.02037673 25.36837)
(0.7568341 -0.01975272 25.3449)
(0.7401986 -0.01859335 25.33561)
(0.7220921 -0.01760316 25.31893)
(0.7078173 -0.01622644 25.30871)
(0.6947481 -0.01461195 25.30151)
(0.6821689 -0.01284689 25.29614)
(0.6699324 -0.01095726 25.29166)
(0.657762 -0.008965668 25.28663)
(0.6451795 -0.006925345 25.28027)
(0.6324644 -0.004734271 25.27483)
(0.6198593 -0.002309828 25.27212)
(0.6070146 0.0003416549 25.27093)
(0.5934947 0.003242838 25.27011)
(0.5791436 0.006549414 25.26922)
(0.5634267 0.0103861 25.26909)
(0.5467208 0.01524566 25.26909)
(0.5283552 0.02122014 25.27274)
(0.5012563 0.03054885 25.25524)
(0.4799324 0.0452531 25.14217)
(0.5523802 0.08255209 23.47557)
(0.320735 -0.01613455 16.86634)
(0.7742067 -0.02627707 24.0644)
(0.8960525 -0.02937471 25.4244)
(0.8955807 -0.0295975 25.42433)
(0.8677901 -0.02986959 25.36318)
(0.8540065 -0.02967749 25.31029)
(0.8339388 -0.02887967 25.27477)
(0.8168579 -0.02761533 25.26006)
(0.8002111 -0.02619586 25.24599)
(0.7843861 -0.02455324 25.23051)
(0.7712229 -0.02261565 25.22129)
(0.759208 -0.02054007 25.21322)
(0.748811 -0.01829959 25.20562)
(0.7402973 -0.01590749 25.19829)
(0.7337061 -0.01327654 25.1913)
(0.7293636 -0.01028921 25.18532)
(0.7273209 -0.006847639 25.18007)
(0.727367 -0.002877549 25.17491)
(0.7294765 0.001703848 25.16989)
(0.733878 0.007007926 25.16548)
(0.7405515 0.01316535 25.16149)
(0.749813 0.02029032 25.15801)
(0.7615626 0.02854508 25.15515)
(0.7767741 0.03793917 25.15286)
(0.7941227 0.04892655 25.15153)
(0.8170645 0.06099264 25.1498)
(0.8398999 0.07595695 25.15165)
(0.8714696 0.0908487 25.14649)
(0.8955661 0.1152651 25.17028)
(0.9534316 -0.02759898 24.05942)
(0.3216276 0.01818158 16.85099)
(0.7769433 0.02894488 24.06759)
(0.9189853 0.02725628 24.85599)
(0.9083612 0.03084184 25.16742)
(0.8743345 0.03309549 25.19051)
(0.8546296 0.03336226 25.18582)
(0.8405875 0.03262898 25.20149)
(0.8256212 0.03180228 25.21548)
(0.805061 0.03103055 25.20283)
(0.7902892 0.02976559 25.1911)
(0.7779352 0.02822836 25.1818)
(0.7676798 0.02665812 25.17596)
(0.7591565 0.02517602 25.17129)
(0.7521723 0.02368996 25.16597)
(0.7470422 0.02203603 25.1605)
(0.7436335 0.02011172 25.15464)
(0.7419451 0.0179014 25.14843)
(0.742002 0.01541718 25.14188)
(0.743997 0.01266918 25.13547)
(0.7479758 0.009654323 25.12928)
(0.7541304 0.006343211 25.1241)
(0.7627486 0.002709303 25.11996)
(0.7733432 -0.0013469 25.1164)
(0.7869762 -0.005780851 25.11291)
(0.8016241 -0.01096315 25.10985)
(0.8217308 -0.01629308 25.10582)
(0.8392694 -0.02342548 25.1042)
(0.8677566 -0.02928093 25.09868)
(0.8883717 -0.03569052 25.07331)
(0.9562026 -0.009832012 24.89887)
(0.3222527 0.01729327 16.90831)
(0.7800018 0.02755002 24.12873)
(0.9110004 0.02952781 25.46801)
(0.9025718 0.0309386 25.47129)
(0.8775589 0.0321868 25.35884)
(0.8588319 0.03255618 25.3088)
(0.8414672 0.03217725 25.30194)
(0.82537 0.03140898 25.31297)
(0.8097065 0.03025808 25.32566)
(0.796919 0.02862464 25.33289)
(0.7865001 0.02684983 25.33307)
(0.7728332 0.02517731 25.31683)
(0.7629676 0.02343517 25.30589)
(0.7540471 0.0214976 25.29808)
(0.7459431 0.01937321 25.29336)
(0.738648 0.0170784 25.28927)
(0.733195 0.01461523 25.28609)
(0.7292489 0.01197704 25.28268)
(0.726031 0.009144669 25.27764)
(0.7235209 0.006079776 25.27166)
(0.7217849 0.00272416 25.26588)
(0.7210739 -0.0009949997 25.2609)
(0.721016 -0.00522878 25.25677)
(0.7226054 -0.01011319 25.25363)
(0.7238675 -0.01596727 25.25162)
(0.7284232 -0.02276806 25.24769)
(0.7287506 -0.03138961 25.24797)
(0.7365804 -0.04055874 25.23422)
(0.727142 -0.05289777 25.22231)
(0.7925841 -0.04761743 24.04459)
(0.3218927 -0.0185132 16.90977)
(0.7786847 -0.02988666 24.13112)
(0.9158518 -0.0306823 25.23204)
(0.9072183 -0.03512826 25.42768)
(0.8822444 -0.03618676 25.3544)
(0.8613948 -0.03539224 25.30694)
(0.8427837 -0.03400149 25.30221)
(0.825064 -0.03237193 25.31424)
(0.8081882 -0.03057582 25.32598)
(0.7947424 -0.02866883 25.33161)
(0.7800695 -0.02697847 25.32084)
(0.7722041 -0.02503488 25.32115)
(0.7630245 -0.02322791 25.31951)
(0.7526222 -0.02151622 25.31406)
(0.7423785 -0.01974309 25.30694)
(0.7329726 -0.01782551 25.29954)
(0.7250938 -0.01574601 25.29322)
(0.7189166 -0.01350775 25.28846)
(0.7137048 -0.01114062 25.28435)
(0.7089893 -0.008652074 25.28069)
(0.704735 -0.006018115 25.27788)
(0.7009123 -0.003186149 25.27573)
(0.6970268 -6.92669e-05 25.27388)
(0.6932983 0.003501783 25.27173)
(0.6886212 0.007634287 25.27005)
(0.6846282 0.01271173 25.26646)
(0.6784712 0.01876195 25.26664)
(0.6707409 0.0261771 25.25191)
(0.6561681 0.03650614 25.21845)
(0.7230439 0.04606912 23.87963)
(0.3216984 -0.0175867 16.85169)
(0.7769884 -0.02840285 24.07074)
(0.9173156 -0.02641486 24.84433)
(0.9544062 -0.02673104 25.09982)
(0.8919726 -0.03229321 25.17417)
(0.8645123 -0.03362582 25.19729)
(0.8409292 -0.03356333 25.20042)
(0.8202708 -0.03289687 25.19501)
(0.8065778 -0.03159864 25.19791)
(0.7937561 -0.02997275 25.19344)
(0.7818046 -0.02822141 25.18498)
(0.7732141 -0.02636944 25.18156)
(0.7657706 -0.02441885 25.17755)
(0.758507 -0.02234703 25.16987)
(0.7526119 -0.02008695 25.16188)
(0.7493649 -0.01758074 25.15646)
(0.7483534 -0.01480723 25.15161)
(0.7494726 -0.01171626 25.14657)
(0.752777 -0.008238004 25.14169)
(0.7584842 -0.00428929 25.13777)
(0.7665488 0.0002116423 25.13481)
(0.7771843 0.00532608 25.13262)
(0.7901264 0.01117136 25.13094)
(0.8062522 0.01772923 25.12952)
(0.8240936 0.02538074 25.12852)
(0.8471417 0.0336003 25.12712)
(0.8691399 0.04399589 25.12722)
(0.9007629 0.05383258 25.12602)
(0.9269041 0.06784862 25.10956)
(0.9943758 0.05619807 24.98371)
(0.3219329 0.01817964 16.8462)
(0.7783817 0.02873757 24.06844)
(0.9162063 0.02758521 24.92355)
(0.9522323 0.02738531 25.14839)
(0.8878763 0.0311278 25.18284)
(0.8582698 0.031459 25.16434)
(0.8393325 0.03083176 25.16649)
(0.8238085 0.02978348 25.17307)
(0.8111925 0.02833337 25.18088)
(0.7995383 0.02680405 25.18524)
(0.7877011 0.02534808 25.18426)
(0.7772588 0.02391686 25.17932)
(0.7683056 0.02250376 25.16989)
(0.7620588 0.02101625 25.16116)
(0.7583292 0.01934744 25.15463)
(0.7563897 0.01740841 25.14888)
(0.7562182 0.0151341 25.14377)
(0.7579043 0.01248404 25.13927)
(0.7615696 0.009425829 25.13519)
(0.7675366 0.005926336 25.13182)
(0.7757978 0.001945958 25.1289)
(0.7865398 -0.00255549 25.12626)
(0.7995005 -0.007679038 25.12379)
(0.8155192 -0.01340138 25.12137)
(0.8331851 -0.02006438 25.11924)
(0.8558821 -0.02714681 25.11668)
(0.8773761 -0.03614622 25.11553)
(0.9086913 -0.04432046 25.1134)
(0.9340043 -0.05620704 25.09837)
(0.9990338 -0.04291123 24.99159)
(0.3226101 0.018318 16.90654)
(0.7816592 0.02932551 24.13788)
(0.9083747 0.03171186 25.45442)
(0.9113208 0.03208256 25.4928)
(0.8901763 0.03271614 25.43373)
(0.8790673 0.03237646 25.37693)
(0.8646025 0.03143144 25.35313)
(0.8496739 0.02995445 25.35596)
(0.8325573 0.02826274 25.35737)
(0.8150324 0.02654083 25.34929)
(0.7963849 0.02499685 25.33379)
(0.7854176 0.02351706 25.32892)
(0.7762303 0.02200058 25.32014)
(0.765518 0.02037785 25.30422)
(0.7560018 0.018619 25.29165)
(0.7481242 0.01669446 25.28369)
(0.7417295 0.0145874 25.2789)
(0.7365869 0.01229022 25.27586)
(0.7324682 0.009803613 25.27324)
(0.7291012 0.007111018 25.26974)
(0.7265216 0.004157164 25.26569)
(0.7247605 0.0008508727 25.26152)
(0.7234004 -0.002918716 25.25779)
(0.7231638 -0.007344924 25.25477)
(0.7224133 -0.01254461 25.25345)
(0.7240626 -0.01889326 25.24989)
(0.7220234 -0.02633105 25.25229)
(0.7248797 -0.03516065 25.23636)
(0.713031 -0.04696423 25.22516)
(0.7776848 -0.05280543 23.98444)
(0.3224863 -0.01825827 16.90409)
(0.7811908 -0.02876894 24.1302)
(0.908577 -0.03109707 25.47614)
(0.9356294 -0.02879053 25.37754)
(0.8856233 -0.03093257 25.33497)
(0.8684725 -0.03085552 25.31466)
(0.8491047 -0.03040383 25.30922)
(0.8326535 -0.02952418 25.32101)
(0.8179474 -0.02828594 25.33356)
(0.8069438 -0.02690147 25.3404)
(0.7940873 -0.02549298 25.33083)
(0.7812712 -0.02394933 25.31685)
(0.7722854 -0.02226028 25.31127)
(0.7607973 -0.02059422 25.29775)
(0.7544637 -0.01878065 25.29381)
(0.7501052 -0.01684605 25.29435)
(0.7453016 -0.01480741 25.29285)
(0.7404705 -0.01262358 25.28927)
(0.7362748 -0.01024498 25.28469)
(0.7330732 -0.007629292 25.28025)
(0.7308297 -0.004736364 25.27652)
(0.729506 -0.00149562 25.2734)
(0.7286851 0.002195561 25.271)
(0.7285451 0.006517489 25.2681)
(0.7275363 0.01159143 25.2655)
(0.7283858 0.01780367 25.2603)
(0.7259546 0.02508957 25.2602)
(0.7281587 0.03388774 25.24221)
(0.7155731 0.04565137 25.22964)
(0.7782613 0.05194142 24.00606)
(0.3219343 -0.01835379 16.84564)
(0.7783788 -0.02926344 24.06794)
(0.9162639 -0.02790976 24.92363)
(0.952129 -0.02763068 25.14725)
(0.8885388 -0.03191783 25.18711)
(0.8567265 -0.03268213 25.17826)
(0.8437262 -0.03191475 25.19053)
(0.8299682 -0.03097485 25.20498)
(0.8160484 -0.02976958 25.20865)
(0.8021924 -0.02832644 25.20005)
(0.7897909 -0.02677111 25.1891)
(0.7788953 -0.02525611 25.17818)
(0.7703753 -0.02367947 25.1699)
(0.7644384 -0.02197832 25.16491)
(0.7597515 -0.02018362 25.15873)
(0.7568414 -0.01818685 25.15197)
(0.7569369 -0.01587173 25.14814)
(0.7593592 -0.01320226 25.14559)
(0.7636866 -0.01015355 25.14291)
(0.7698586 -0.006684549 25.13969)
(0.7779361 -0.00273252 25.13605)
(0.7882677 0.001756113 25.13227)
(0.800722 0.006880915 25.12862)
(0.816249 0.01260524 25.12516)
(0.833442 0.01926656 25.12222)
(0.8557777 0.02631024 25.11904)
(0.8768837 0.03528161 25.11746)
(0.908092 0.04336827 25.11499)
(0.9327824 0.05503569 25.0988)
(0.997813 0.04143196 24.99036)
(0.3216067 0.01824155 16.8533)
(0.7768368 0.02975517 24.07413)
(0.9200045 0.02753235 24.85227)
(0.8987773 0.032712 25.19189)
(0.8680484 0.0337362 25.16909)
(0.8523024 0.03293569 25.16802)
(0.8344702 0.03187496 25.17492)
(0.8207488 0.03050354 25.18896)
(0.8062298 0.02907588 25.19277)
(0.7923596 0.02761493 25.18693)
(0.7812141 0.02604385 25.18271)
(0.7713003 0.02436715 25.17763)
(0.7620451 0.02257924 25.17026)
(0.7556162 0.02060768 25.16649)
(0.7511159 0.01850932 25.16303)
(0.7483077 0.01625683 25.1582)
(0.7474658 0.01372962 25.15267)
(0.7488282 0.01080607 25.14738)
(0.7524154 0.00741092 25.14266)
(0.7582576 0.003478036 25.13869)
(0.7664657 -0.001064517 25.13576)
(0.7772166 -0.006268731 25.13356)
(0.7902516 -0.0122429 25.13182)
(0.8064273 -0.01895944 25.1303)
(0.8243295 -0.0267794 25.12919)
(0.8474492 -0.03518087 25.1277)
(0.8694142 -0.04574973 25.12776)
(0.9015837 -0.05571978 25.12667)
(0.9271878 -0.07031418 25.11149)
(0.9943899 -0.05968987 25.00095)
(0.3218949 0.01932935 16.90974)
(0.7782912 0.03111742 24.12982)
(0.9162912 0.02812267 24.88429)
(0.9132395 0.03195014 25.219)
(0.8760038 0.03330373 25.28756)
(0.8631225 0.03280987 25.29972)
(0.8452674 0.03153093 25.31244)
(0.8263265 0.02995841 25.32143)
(0.8150566 0.02803798 25.33714)
(0.804656 0.02602209 25.3441)
(0.7936116 0.02414659 25.34389)
(0.782508 0.02246455 25.34181)
(0.7731834 0.02089841 25.34163)
(0.7612592 0.01952819 25.33074)
(0.7479646 0.0181526 25.31318)
(0.7353572 0.01663289 25.29586)
(0.7252907 0.01489447 25.28435)
(0.716846 0.01297015 25.27593)
(0.7099856 0.01086018 25.26991)
(0.7043027 0.008564582 25.2657)
(0.6992244 0.006081981 25.26257)
(0.6946784 0.003360761 25.26045)
(0.6902804 0.0003149568 25.25919)
(0.6863682 -0.003223306 25.25812)
(0.6815964 -0.00735806 25.25798)
(0.6781717 -0.01249951 25.25595)
(0.6716199 -0.01859573 25.25907)
(0.6660055 -0.02623077 25.24574)
(0.649868 -0.03730875 25.21092)
(0.7168061 -0.04706744 23.91091)
(0.3224032 -0.01719894 16.91122)
(0.7805221 -0.02724983 24.13581)
(0.9075953 -0.0294895 25.47502)
(0.9304608 -0.02774303 25.39347)
(0.8880907 -0.02941717 25.36035)
(0.8712341 -0.02962703 25.35146)
(0.8582046 -0.0290935 25.3477)
(0.8418965 -0.02832839 25.35483)
(0.8270706 -0.02714546 25.36518)
(0.8137372 -0.02581427 25.36781)
(0.8006047 -0.02442225 25.35889)
(0.7834129 -0.02297496 25.33459)
(0.7678507 -0.02140153 25.31413)
(0.7574967 -0.01968882 25.30658)
(0.7475279 -0.01785561 25.29729)
(0.7408484 -0.01584709 25.29199)
(0.7370318 -0.01366114 25.29169)
(0.7334133 -0.01124443 25.29013)
(0.7300318 -0.008553629 25.28691)
(0.7273921 -0.005554725 25.28295)
(0.7256642 -0.002204208 25.27895)
(0.7250165 0.001572115 25.27516)
(0.7250397 0.005891395 25.27162)
(0.7264471 0.01091995 25.2679)
(0.7274827 0.0168114 25.26477)
(0.7312306 0.02389126 25.2587)
(0.7314788 0.03225559 25.25816)
(0.7376667 0.04200656 25.23883)
(0.7284958 0.05460489 25.22853)
(0.7928895 0.04887511 24.01327)
(0.3215532 -0.01824447 16.85054)
(0.7768612 -0.02850526 24.06487)
(0.916964 -0.02771837 24.92388)
(0.9507761 -0.02793155 25.15218)
(0.8866891 -0.03116315 25.19435)
(0.8593484 -0.03102195 25.20125)
(0.8356096 -0.03031278 25.19694)
(0.8145184 -0.02945767 25.18988)
(0.8003093 -0.02827689 25.19071)
(0.7886116 -0.02685199 25.18968)
(0.7774941 -0.02542943 25.18487)
(0.7667626 -0.02413194 25.17686)
(0.7570352 -0.02289953 25.16795)
(0.7501409 -0.02154803 25.1634)
(0.7448702 -0.02002588 25.15904)
(0.7414517 -0.01829835 25.1543)
(0.7398187 -0.01632787 25.14892)
(0.7400939 -0.01407401 25.14308)
(0.742065 -0.01149864 25.13633)
(0.7464991 -0.008587346 25.13109)
(0.7531079 -0.005326563 25.12683)
(0.7620026 -0.001704668 25.12293)
(0.7727211 0.002359475 25.1191)
(0.7863714 0.006807353 25.11511)
(0.801004 0.01198813 25.11153)
(0.8210178 0.01731312 25.107)
(0.8385362 0.02441347 25.10491)
(0.867319 0.03024767 25.09934)
(0.8867703 0.03646627 25.07227)
(0.9548303 0.01057516 24.90763)
(0.3207455 0.01657407 16.86584)
(0.7742392 0.0271912 24.06362)
(0.8961794 0.0305373 25.42432)
(0.8955121 0.0307306 25.42285)
(0.8673982 0.03056349 25.36012)
(0.8537522 0.02989463 25.30808)
(0.8339386 0.02895947 25.27444)
(0.8202857 0.0276504 25.26938)
(0.7988461 0.02667166 25.242)
(0.7799218 0.02521398 25.21856)
(0.7644897 0.02335199 25.20376)
(0.7512415 0.02127377 25.19198)
(0.7413798 0.01894263 25.18444)
(0.7354697 0.01620715 25.18331)
(0.731058 0.01316555 25.18254)
(0.7274545 0.009898098 25.17985)
(0.7254456 0.006350318 25.1763)
(0.7256443 0.002370575 25.1726)
(0.7281311 -0.002196489 25.1688)
(0.732861 -0.007467869 25.16492)
(0.739804 -0.0135622 25.16117)
(0.7492712 -0.02058688 25.15779)
(0.7611732 -0.02871564 25.15494)
(0.776474 -0.03798208 25.15262)
(0.7939006 -0.04884147 25.15125)
(0.8168534 -0.06081236 25.14953)
(0.8397258 -0.0756507 25.15129)
(0.8714034 -0.09047945 25.14616)
(0.8947035 -0.1148105 25.1708)
(0.9552403 0.02663962 24.06413)
(0.3205337 0.01742711 16.92222)
(0.773544 0.02780036 24.11475)
(0.9012016 0.02971606 25.22265)
(0.8820739 0.03233266 25.37306)
(0.8537473 0.03153631 25.32294)
(0.839356 0.03016299 25.30359)
(0.8236047 0.02768464 25.30851)
(0.8023386 0.02546058 25.32303)
(0.7833966 0.02345889 25.33364)
(0.7695309 0.02130774 25.34345)
(0.7531907 0.01976559 25.33972)
(0.7414894 0.01803325 25.34365)
(0.7288331 0.01652483 25.342)
(0.714843 0.01508155 25.33585)
(0.7014936 0.01357839 25.32883)
(0.6864373 0.0122921 25.31355)
(0.6708966 0.01095705 25.29681)
(0.6574167 0.009208398 25.28746)
(0.6447228 0.007207903 25.28129)
(0.6322062 0.00503579 25.27594)
(0.6195925 0.002684065 25.2714)
(0.6067866 9.393029e-05 25.26838)
(0.5934459 -0.002804774 25.26703)
(0.5793506 -0.006159148 25.2667)
(0.5638991 -0.01005365 25.26786)
(0.5473182 -0.01492782 25.26843)
(0.5289339 -0.0208139 25.27244)
(0.5018953 -0.02997085 25.25441)
(0.4806144 -0.04474853 25.14165)
(0.5532754 -0.08229891 23.48321)
(0.3210422 -0.01727287 16.92185)
(0.7745758 -0.02841535 24.11755)
(0.9068706 -0.02666785 25.01268)
(0.9307334 -0.02676413 25.297)
(0.8798578 -0.03059258 25.31056)
(0.8536677 -0.03276369 25.32949)
(0.8348612 -0.03330798 25.34074)
(0.8173664 -0.0328645 25.35616)
(0.8020653 -0.03181879 25.36685)
(0.785026 -0.03005819 25.36022)
(0.7659719 -0.02793822 25.34129)
(0.749217 -0.02572502 25.32575)
(0.7352392 -0.02346947 25.31507)
(0.7235699 -0.02109926 25.30665)
(0.7133793 -0.01853493 25.29818)
(0.7056434 -0.01583843 25.29335)
(0.6992569 -0.01296531 25.28911)
(0.6940422 -0.009804632 25.28469)
(0.6898443 -0.006268515 25.27961)
(0.6867762 -0.002298807 25.27427)
(0.6848118 0.002171325 25.26886)
(0.6841365 0.007218319 25.26353)
(0.6845401 0.01300124 25.25846)
(0.6868325 0.0196162 25.25362)
(0.6894439 0.02747697 25.24937)
(0.6958099 0.03629958 25.24374)
(0.699172 0.0475985 25.24162)
(0.710346 0.0584448 25.22704)
(0.7064653 0.07336634 25.19859)
(0.7781788 0.04139606 24.00627)
(0.3204664 -0.01809986 16.8682)
(0.7730877 -0.02892162 24.06294)
(0.8926883 -0.03207721 25.41891)
(0.8915145 -0.03214103 25.42748)
(0.8623196 -0.03237285 25.36146)
(0.8496776 -0.03230255 25.30686)
(0.8271921 -0.03175625 25.26372)
(0.8101612 -0.03079267 25.25466)
(0.7910512 -0.02992527 25.23488)
(0.7717938 -0.02885357 25.20921)
(0.7561163 -0.02755373 25.19496)
(0.7433935 -0.02622711 25.18953)
(0.7313984 -0.02493218 25.18279)
(0.7205012 -0.02361281 25.17435)
(0.711229 -0.02223453 25.16525)
(0.7038033 -0.02075444 25.15614)
(0.6982104 -0.01914012 25.14713)
(0.6943216 -0.01738236 25.1381)
(0.6920258 -0.01548038 25.12899)
(0.691365 -0.01343887 25.11986)
(0.6923424 -0.01125411 25.11076)
(0.6952336 -0.008931116 25.1018)
(0.6995632 -0.00641892 25.09282)
(0.7064869 -0.003819035 25.08386)
(0.7137393 -0.0007896372 25.07522)
(0.7262774 0.001881225 25.06577)
(0.7348811 0.006172108 25.05874)
(0.7551893 0.007362832 25.04443)
(0.7628969 0.0005078209 24.97193)
(0.8369335 -0.0772764 24.5497)
(0.3166762 0.01641423 16.90397)
(0.7604927 0.02503425 24.02599)
(0.8678525 0.02812658 25.3489)
(0.8536271 0.02856807 25.4272)
(0.8235851 0.02826948 25.36566)
(0.8022741 0.02701124 25.29789)
(0.781289 0.02481296 25.2719)
(0.7593072 0.02234249 25.27598)
(0.7346861 0.02058587 25.26265)
(0.7128263 0.01912496 25.24382)
(0.6929322 0.01761044 25.2266)
(0.6748782 0.01588626 25.21201)
(0.6597959 0.01383857 25.20199)
(0.6481403 0.01134769 25.19875)
(0.6378053 0.008526991 25.19436)
(0.6285325 0.005282777 25.18909)
(0.6202608 0.001556389 25.18219)
(0.6136013 -0.002837137 25.1752)
(0.6088184 -0.008059115 25.16801)
(0.6061758 -0.01429488 25.16147)
(0.6057431 -0.02170869 25.15583)
(0.607649 -0.03042703 25.1507)
(0.6118903 -0.04061375 25.14592)
(0.6193008 -0.05233784 25.1419)
(0.6289969 -0.06608765 25.13901)
(0.6440455 -0.08127994 25.13657)
(0.659499 -0.1003635 25.1369)
(0.6843206 -0.1189613 25.12763)
(0.7039098 -0.1490228 25.08849)
(0.7943821 -0.07511202 23.8232)
(0.3164626 0.01866994 16.9665)
(0.7575038 0.02492276 24.08893)
(0.8718037 0.02913563 25.36205)
(0.8569454 0.02779445 25.49494)
(0.8279746 0.02345622 25.44508)
(0.7992283 0.01850312 25.39581)
(0.7721668 0.01339471 25.38698)
(0.7467212 0.009306272 25.3955)
(0.7222173 0.00741962 25.39401)
(0.6992391 0.006718813 25.38599)
(0.6760391 0.006190825 25.37911)
(0.6529749 0.00562409 25.37372)
(0.6292772 0.005777666 25.35935)
(0.6051114 0.005833525 25.34706)
(0.58466 0.005279215 25.33677)
(0.5622126 0.005194796 25.32101)
(0.5396431 0.004836858 25.30786)
(0.5169347 0.004019127 25.29867)
(0.4941384 0.002655171 25.29349)
(0.47111 0.0006795013 25.29212)
(0.4470653 -0.001671828 25.29152)
(0.4215194 -0.004344744 25.29057)
(0.3939927 -0.007347815 25.2883)
(0.3643218 -0.01115463 25.28731)
(0.3325874 -0.01630861 25.28805)
(0.2974883 -0.02341477 25.2868)
(0.2595142 -0.03660943 25.2736)
(0.2044762 -0.06933029 25.18001)
(0.1843291 -0.1674605 24.6459)
(0.2873817 -0.4602323 21.53934)
(0.3173377 -0.0111973 16.97198)
(0.7578449 -0.02191824 24.10739)
(0.8882348 -0.01354895 24.93079)
(0.8538857 -0.0231284 25.31621)
(0.8256663 -0.03108747 25.38976)
(0.8049173 -0.03617748 25.39951)
(0.7823848 -0.03848187 25.39984)
(0.7563292 -0.03884024 25.40115)
(0.7312387 -0.03742771 25.3932)
(0.7079592 -0.03515387 25.38015)
(0.6850709 -0.03245164 25.3643)
(0.6627202 -0.02927088 25.34464)
(0.6418714 -0.02602899 25.32602)
(0.6224766 -0.02274689 25.30902)
(0.6046232 -0.01944622 25.29438)
(0.5882144 -0.01600261 25.28137)
(0.5732746 -0.01260758 25.27168)
(0.5595737 -0.009022225 25.2633)
(0.5465163 -0.004471138 25.25024)
(0.5342795 0.0008005641 25.23577)
(0.5230688 0.006523532 25.22263)
(0.5130136 0.01270073 25.21148)
(0.5039002 0.01957148 25.20149)
(0.4961364 0.02737377 25.1922)
(0.488551 0.03664932 25.18267)
(0.4834215 0.04703567 25.17291)
(0.4786413 0.05996261 25.16128)
(0.4802944 0.06871787 25.13218)
(0.38993 0.06411312 24.9777)
(0.7581531 -0.04354416 23.61374)
(0.3171053 -0.01342444 16.91002)
(0.7593072 -0.02173523 24.03521)
(0.8828511 -0.02012378 24.93159)
(0.907999 -0.01999535 25.20427)
(0.8282995 -0.02505876 25.23546)
(0.7974674 -0.02699056 25.22507)
(0.7751803 -0.02703397 25.23168)
(0.7508291 -0.0261054 25.23832)
(0.7252669 -0.02457544 25.21504)
(0.7023289 -0.02319856 25.19569)
(0.6810139 -0.02207202 25.18464)
(0.6606966 -0.02102733 25.1716)
(0.6414742 -0.01994858 25.15372)
(0.6236986 -0.01895119 25.13869)
(0.6071867 -0.01779488 25.12106)
(0.5919433 -0.01646663 25.10179)
(0.5779684 -0.0150337 25.08322)
(0.5651376 -0.01352229 25.0665)
(0.5534942 -0.01193687 25.05133)
(0.5428868 -0.01025103 25.0368)
(0.5335315 -0.008407861 25.02177)
(0.525138 -0.006473899 25.007)
(0.5178264 -0.00433964 24.9917)
(0.5120709 -0.002516114 24.97965)
(0.5057533 -0.0005415535 24.97063)
(0.5051072 0.0002063237 24.96778)
(0.5005269 0.001321641 24.96306)
(0.5041113 -0.003731084 24.93309)
(0.3382361 -0.03747747 24.73161)
(0.8117177 -0.2665242 23.32628)
(0.1955088 -0.004467465 6.850894)
(0.6383108 -0.001731289 16.84497)
(0.9870849 0.004652314 23.03427)
(1.159147 0.005918589 24.96753)
(1.29641 0.00237202 25.28566)
(1.3594 0.0002019258 25.251)
(1.389197 -0.0008673776 25.15297)
(1.430854 -0.00237401 25.07044)
(1.475646 -0.003694025 25.07046)
(1.520616 -0.005870913 25.06817)
(1.567575 -0.00859768 25.06201)
(1.616461 -0.01172709 25.05379)
(1.666155 -0.01568675 25.02756)
(1.718041 -0.01985277 25.00832)
(1.772011 -0.02405088 24.99913)
(1.827877 -0.02855785 24.99041)
(1.885688 -0.03364412 24.97877)
(1.945796 -0.03920445 24.96909)
(2.008137 -0.04533994 24.96119)
(2.073377 -0.05215938 24.95438)
(2.140901 -0.05970001 24.95016)
(2.21194 -0.06828943 24.94614)
(2.285677 -0.07749265 24.94713)
(2.361943 -0.08892453 24.94258)
(2.446049 -0.1007458 24.9378)
(2.521539 -0.1173017 24.92343)
(2.631114 -0.1318312 24.91392)
(2.68403 -0.1529592 24.89783)
(2.881544 -0.1744134 24.86985)
(2.784078 -0.1632068 24.4976)
(0.1939203 -0.02704533 6.97854)
(0.6328676 -0.0280836 17.14504)
(0.9647788 -0.01378617 23.38828)
(1.120686 -0.0158667 25.09185)
(1.242466 -0.02564002 25.46271)
(1.295533 -0.03475497 25.35598)
(1.319961 -0.03967209 25.27609)
(1.362218 -0.04471149 25.22335)
(1.397471 -0.05025107 25.18363)
(1.435391 -0.05632313 25.15204)
(1.478471 -0.06243766 25.13106)
(1.527159 -0.06681369 25.1411)
(1.569356 -0.07519632 25.10848)
(1.611214 -0.08549038 25.0648)
(1.658531 -0.09355015 25.05661)
(1.707168 -0.1014986 25.05836)
(1.755952 -0.110418 25.05874)
(1.803584 -0.1222413 25.04161)
(1.851762 -0.1359206 25.01993)
(1.901246 -0.1505348 25.00338)
(1.952432 -0.1652211 24.99998)
(2.004294 -0.1808691 25.00112)
(2.056487 -0.1987803 24.99697)
(2.108074 -0.2190812 24.98799)
(2.16152 -0.241196 24.97568)
(2.21078 -0.2662934 24.96463)
(2.268864 -0.2895383 24.95042)
(2.311606 -0.3297843 24.91187)
(2.418462 -0.3635939 24.77022)
(2.302691 -0.4414766 24.46813)
(0.1892933 -0.03258424 7.008277)