/*--------------------------------*- C++ -*----------------------------------*\
| =========                 |                                                 |
| \\      /  F ield         | OpenFOAM: The Open Source CFD Toolbox           |
|  \\    /   O peration     | Version:  4.0                                   |
|   \\  /    A nd           | Web:      www.OpenFOAM.org                      |
|    \\/     M anipulation  |                                                 |
\*---------------------------------------------------------------------------*/
FoamFile
{
    version     2.0;
    format      ascii;
    class       volScalarField;
    location    "120/air";
    object      XH2Oair;
}
// * * * * * * * * * * * * * * * * * * * * * * * * * * * * * * * * * * * * * //

dimensions      [0 0 0 0 0 0 0];

internalField   nonuniform List<scalar> 
39776
(
0.2204165
0.2204165
0.2204165
0.2204165
0.2204165
0.2204165
0.2204165
0.2204165
0.2204165
0.2204165
0.2204165
0.2204166
0.2204166
0.2204167
0.2204168
0.220417
0.2204172
0.2204175
0.220418
0.2204186
0.2204195
0.2204209
0.2204228
0.2204256
0.2204297
0.2204358
0.2204448
0.2204583
0.2204784
0.2205088
0.2204164
0.2204164
0.2204164
0.2204164
0.2204164
0.2204165
0.2204165
0.2204165
0.2204165
0.2204165
0.2204165
0.2204165
0.2204166
0.2204166
0.2204167
0.2204168
0.2204169
0.2204171
0.2204174
0.2204177
0.2204183
0.220419
0.2204201
0.2204217
0.2204239
0.2204272
0.220432
0.220439
0.2204493
0.2204645
0.2204164
0.2204164
0.2204164
0.2204164
0.2204164
0.2204165
0.2204165
0.2204165
0.2204165
0.2204165
0.2204165
0.2204165
0.2204166
0.2204166
0.2204167
0.2204168
0.2204169
0.2204171
0.2204173
0.2204177
0.2204182
0.220419
0.2204201
0.2204216
0.2204239
0.2204272
0.220432
0.220439
0.2204494
0.2204648
0.2204164
0.2204165
0.2204165
0.2204165
0.2204165
0.2204165
0.2204165
0.2204165
0.2204165
0.2204165
0.2204165
0.2204166
0.2204166
0.2204167
0.2204168
0.2204169
0.2204171
0.2204174
0.2204178
0.2204184
0.2204192
0.2204204
0.2204221
0.2204246
0.2204283
0.2204336
0.2204415
0.2204533
0.2204708
0.2204971
0.2204164
0.2204164
0.2204165
0.2204165
0.2204165
0.2204165
0.2204165
0.2204165
0.2204165
0.2204165
0.2204165
0.2204166
0.2204166
0.2204167
0.2204168
0.2204169
0.2204171
0.2204174
0.2204178
0.2204184
0.2204192
0.2204203
0.220422
0.2204244
0.220428
0.2204332
0.2204409
0.2204524
0.2204694
0.2204951
0.2204164
0.2204164
0.2204164
0.2204164
0.2204164
0.2204165
0.2204165
0.2204165
0.2204165
0.2204165
0.2204165
0.2204165
0.2204166
0.2204166
0.2204167
0.2204168
0.2204169
0.2204171
0.2204173
0.2204177
0.2204182
0.220419
0.22042
0.2204216
0.2204238
0.220427
0.2204317
0.2204387
0.2204489
0.2204641
0.2204164
0.2204164
0.2204164
0.2204164
0.2204164
0.2204165
0.2204165
0.2204165
0.2204165
0.2204165
0.2204165
0.2204165
0.2204166
0.2204166
0.2204167
0.2204168
0.2204169
0.2204171
0.2204173
0.2204177
0.2204182
0.220419
0.22042
0.2204216
0.2204238
0.2204271
0.2204318
0.2204388
0.2204491
0.2204644
0.2204164
0.2204164
0.2204165
0.2204165
0.2204165
0.2204165
0.2204165
0.2204165
0.2204165
0.2204165
0.2204165
0.2204166
0.2204166
0.2204167
0.2204168
0.2204169
0.2204171
0.2204174
0.2204178
0.2204184
0.2204192
0.2204204
0.2204221
0.2204245
0.2204281
0.2204334
0.2204412
0.2204527
0.22047
0.2204959
0.2204164
0.2204164
0.2204165
0.2204165
0.2204165
0.2204165
0.2204165
0.2204165
0.2204165
0.2204165
0.2204165
0.2204166
0.2204166
0.2204167
0.2204168
0.2204169
0.2204171
0.2204174
0.2204178
0.2204184
0.2204192
0.2204204
0.220422
0.2204245
0.2204281
0.2204333
0.2204411
0.2204526
0.2204698
0.2204956
0.2204164
0.2204164
0.2204164
0.2204164
0.2204164
0.2204165
0.2204165
0.2204165
0.2204165
0.2204165
0.2204165
0.2204165
0.2204166
0.2204166
0.2204167
0.2204168
0.2204169
0.2204171
0.2204173
0.2204177
0.2204182
0.220419
0.22042
0.2204216
0.2204238
0.2204271
0.2204318
0.2204388
0.220449
0.2204643
0.2204164
0.2204164
0.2204164
0.2204164
0.2204164
0.2204165
0.2204165
0.2204165
0.2204165
0.2204165
0.2204165
0.2204165
0.2204166
0.2204166
0.2204167
0.2204168
0.2204169
0.2204171
0.2204173
0.2204177
0.2204182
0.220419
0.22042
0.2204216
0.2204238
0.2204271
0.2204318
0.2204388
0.2204491
0.2204643
0.2204164
0.2204164
0.2204165
0.2204165
0.2204165
0.2204165
0.2204165
0.2204165
0.2204165
0.2204165
0.2204165
0.2204166
0.2204166
0.2204167
0.2204168
0.2204169
0.2204171
0.2204174
0.2204178
0.2204184
0.2204192
0.2204204
0.2204221
0.2204245
0.2204281
0.2204333
0.2204411
0.2204526
0.2204699
0.2204957
0.2204164
0.2204164
0.2204165
0.2204165
0.2204165
0.2204165
0.2204165
0.2204165
0.2204165
0.2204165
0.2204165
0.2204166
0.2204166
0.2204167
0.2204168
0.2204169
0.2204171
0.2204174
0.2204178
0.2204184
0.2204192
0.2204204
0.220422
0.2204245
0.2204281
0.2204333
0.2204411
0.2204526
0.2204698
0.2204957
0.2204164
0.2204164
0.2204164
0.2204164
0.2204164
0.2204165
0.2204165
0.2204165
0.2204165
0.2204165
0.2204165
0.2204165
0.2204166
0.2204166
0.2204167
0.2204168
0.2204169
0.2204171
0.2204173
0.2204177
0.2204182
0.220419
0.22042
0.2204216
0.2204238
0.2204271
0.2204318
0.2204388
0.2204491
0.2204643
0.2204164
0.2204164
0.2204164
0.2204164
0.2204164
0.2204165
0.2204165
0.2204165
0.2204165
0.2204165
0.2204165
0.2204165
0.2204166
0.2204166
0.2204167
0.2204168
0.2204169
0.2204171
0.2204173
0.2204177
0.2204182
0.220419
0.22042
0.2204216
0.2204238
0.2204271
0.2204318
0.2204388
0.2204491
0.2204643
0.2204164
0.2204164
0.2204165
0.2204165
0.2204165
0.2204165
0.2204165
0.2204165
0.2204165
0.2204165
0.2204165
0.2204166
0.2204166
0.2204167
0.2204168
0.2204169
0.2204171
0.2204174
0.2204178
0.2204184
0.2204192
0.2204204
0.220422
0.2204245
0.2204281
0.2204333
0.2204411
0.2204526
0.2204698
0.2204957
0.2204164
0.2204164
0.2204165
0.2204165
0.2204165
0.2204165
0.2204165
0.2204165
0.2204165
0.2204165
0.2204165
0.2204166
0.2204166
0.2204167
0.2204168
0.2204169
0.2204171
0.2204174
0.2204178
0.2204184
0.2204192
0.2204204
0.2204221
0.2204245
0.2204281
0.2204334
0.2204411
0.2204527
0.2204699
0.2204958
0.2204164
0.2204164
0.2204164
0.2204164
0.2204164
0.2204165
0.2204165
0.2204165
0.2204165
0.2204165
0.2204165
0.2204165
0.2204166
0.2204166
0.2204167
0.2204168
0.2204169
0.2204171
0.2204173
0.2204177
0.2204182
0.220419
0.22042
0.2204216
0.2204238
0.2204271
0.2204318
0.2204388
0.2204491
0.2204644
0.2204164
0.2204164
0.2204164
0.2204164
0.2204164
0.2204165
0.2204165
0.2204165
0.2204165
0.2204165
0.2204165
0.2204165
0.2204166
0.2204166
0.2204167
0.2204168
0.2204169
0.2204171
0.2204173
0.2204177
0.2204182
0.220419
0.22042
0.2204216
0.2204238
0.2204271
0.2204318
0.2204388
0.2204491
0.2204643
0.2204164
0.2204164
0.2204165
0.2204165
0.2204165
0.2204165
0.2204165
0.2204165
0.2204165
0.2204165
0.2204165
0.2204166
0.2204166
0.2204167
0.2204168
0.2204169
0.2204171
0.2204174
0.2204178
0.2204184
0.2204192
0.2204204
0.220422
0.2204245
0.2204281
0.2204333
0.2204411
0.2204526
0.2204698
0.2204956
0.2204164
0.2204164
0.2204165
0.2204165
0.2204165
0.2204165
0.2204165
0.2204165
0.2204165
0.2204165
0.2204165
0.2204166
0.2204166
0.2204167
0.2204168
0.2204169
0.2204171
0.2204174
0.2204178
0.2204184
0.2204192
0.2204204
0.2204221
0.2204245
0.2204281
0.2204334
0.2204412
0.2204528
0.2204701
0.2204961
0.2204164
0.2204164
0.2204164
0.2204164
0.2204164
0.2204165
0.2204165
0.2204165
0.2204165
0.2204165
0.2204165
0.2204165
0.2204166
0.2204166
0.2204167
0.2204168
0.2204169
0.2204171
0.2204173
0.2204177
0.2204182
0.220419
0.22042
0.2204216
0.2204238
0.2204271
0.2204319
0.2204389
0.2204492
0.2204645
0.2204164
0.2204164
0.2204164
0.2204164
0.2204164
0.2204165
0.2204165
0.2204165
0.2204165
0.2204165
0.2204165
0.2204165
0.2204166
0.2204166
0.2204167
0.2204168
0.2204169
0.2204171
0.2204173
0.2204177
0.2204182
0.220419
0.22042
0.2204215
0.2204238
0.220427
0.2204317
0.2204387
0.2204489
0.2204641
0.2204164
0.2204164
0.2204165
0.2204165
0.2204165
0.2204165
0.2204165
0.2204165
0.2204165
0.2204165
0.2204165
0.2204166
0.2204166
0.2204167
0.2204168
0.2204169
0.2204171
0.2204174
0.2204178
0.2204184
0.2204192
0.2204203
0.220422
0.2204244
0.220428
0.2204332
0.2204409
0.2204523
0.2204694
0.220495
0.2204164
0.2204165
0.2204165
0.2204165
0.2204165
0.2204165
0.2204165
0.2204165
0.2204165
0.2204165
0.2204165
0.2204166
0.2204166
0.2204167
0.2204168
0.2204169
0.2204171
0.2204174
0.2204178
0.2204184
0.2204192
0.2204204
0.2204221
0.2204246
0.2204283
0.2204336
0.2204415
0.2204532
0.2204707
0.220497
0.2204164
0.2204164
0.2204164
0.2204164
0.2204164
0.2204165
0.2204165
0.2204165
0.2204165
0.2204165
0.2204165
0.2204165
0.2204166
0.2204166
0.2204167
0.2204168
0.2204169
0.2204171
0.2204173
0.2204177
0.2204182
0.220419
0.2204201
0.2204216
0.2204239
0.2204272
0.2204319
0.220439
0.2204493
0.2204647
0.2204164
0.2204164
0.2204164
0.2204164
0.2204164
0.2204165
0.2204165
0.2204165
0.2204165
0.2204165
0.2204165
0.2204165
0.2204166
0.2204166
0.2204167
0.2204168
0.2204169
0.2204171
0.2204174
0.2204177
0.2204183
0.220419
0.2204201
0.2204216
0.2204239
0.2204271
0.2204319
0.2204389
0.2204491
0.2204643
0.2204165
0.2204165
0.2204165
0.2204165
0.2204165
0.2204165
0.2204165
0.2204165
0.2204165
0.2204165
0.2204165
0.2204166
0.2204166
0.2204167
0.2204168
0.220417
0.2204172
0.2204175
0.220418
0.2204186
0.2204195
0.2204208
0.2204228
0.2204256
0.2204297
0.2204357
0.2204447
0.2204581
0.2204781
0.2205083
0.2204171
0.2204171
0.2204171
0.2204171
0.2204172
0.2204173
0.2204174
0.2204176
0.2204178
0.2204182
0.2204186
0.2204192
0.2204201
0.2204211
0.2204225
0.2204244
0.2204268
0.2204299
0.220434
0.2204392
0.220446
0.2204546
0.2204657
0.2204798
0.2204977
0.2205203
0.2205487
0.2205842
0.2206283
0.2206827
0.2204169
0.2204169
0.2204169
0.2204169
0.2204169
0.220417
0.220417
0.2204171
0.2204173
0.2204175
0.2204177
0.2204181
0.2204186
0.2204192
0.22042
0.220421
0.2204224
0.2204242
0.2204266
0.2204296
0.2204335
0.2204385
0.220445
0.2204532
0.2204636
0.2204768
0.2204935
0.2205142
0.22054
0.2205717
0.2204169
0.2204168
0.2204169
0.2204169
0.2204169
0.2204169
0.220417
0.2204171
0.2204173
0.2204175
0.2204177
0.2204181
0.2204185
0.2204191
0.2204199
0.220421
0.2204224
0.2204242
0.2204265
0.2204295
0.2204335
0.2204385
0.220445
0.2204532
0.2204638
0.220477
0.2204938
0.2205147
0.2205406
0.2205724
0.220417
0.220417
0.220417
0.2204171
0.2204171
0.2204172
0.2204173
0.2204175
0.2204177
0.220418
0.2204185
0.220419
0.2204198
0.2204208
0.2204221
0.2204238
0.220426
0.2204288
0.2204326
0.2204373
0.2204435
0.2204514
0.2204615
0.2204744
0.2204907
0.2205112
0.220537
0.2205693
0.2206092
0.2206582
0.220417
0.220417
0.220417
0.220417
0.2204171
0.2204172
0.2204173
0.2204175
0.2204177
0.220418
0.2204184
0.220419
0.2204197
0.2204207
0.220422
0.2204237
0.2204258
0.2204287
0.2204323
0.220437
0.2204431
0.2204509
0.2204608
0.2204734
0.2204894
0.2205096
0.2205349
0.2205666
0.2206058
0.2206539
0.2204168
0.2204168
0.2204168
0.2204169
0.2204169
0.2204169
0.220417
0.2204171
0.2204172
0.2204174
0.2204177
0.220418
0.2204185
0.2204191
0.2204199
0.2204209
0.2204223
0.2204241
0.2204264
0.2204294
0.2204332
0.2204382
0.2204446
0.2204527
0.2204631
0.2204762
0.2204928
0.2205134
0.220539
0.2205705
0.2204168
0.2204168
0.2204168
0.2204169
0.2204169
0.2204169
0.220417
0.2204171
0.2204172
0.2204174
0.2204177
0.220418
0.2204185
0.2204191
0.2204199
0.2204209
0.2204223
0.2204241
0.2204264
0.2204294
0.2204333
0.2204383
0.2204448
0.220453
0.2204634
0.2204766
0.2204932
0.2205139
0.2205397
0.2205712
0.220417
0.220417
0.220417
0.2204171
0.2204171
0.2204172
0.2204173
0.2204175
0.2204177
0.220418
0.2204185
0.220419
0.2204198
0.2204208
0.220422
0.2204237
0.2204259
0.2204288
0.2204325
0.2204372
0.2204434
0.2204512
0.2204612
0.220474
0.2204901
0.2205105
0.2205361
0.220568
0.2206075
0.2206561
0.220417
0.220417
0.220417
0.220417
0.2204171
0.2204172
0.2204173
0.2204175
0.2204177
0.220418
0.2204184
0.220419
0.2204198
0.2204207
0.220422
0.2204237
0.2204259
0.2204287
0.2204324
0.2204372
0.2204433
0.2204511
0.2204611
0.2204738
0.2204898
0.2205101
0.2205356
0.2205674
0.2206068
0.2206551
0.2204168
0.2204168
0.2204168
0.2204169
0.2204169
0.2204169
0.220417
0.2204171
0.2204172
0.2204174
0.2204177
0.220418
0.2204185
0.2204191
0.2204199
0.2204209
0.2204223
0.2204241
0.2204264
0.2204294
0.2204333
0.2204383
0.2204447
0.2204529
0.2204633
0.2204765
0.220493
0.2205138
0.2205394
0.220571
0.2204168
0.2204168
0.2204168
0.2204169
0.2204169
0.2204169
0.220417
0.2204171
0.2204172
0.2204174
0.2204177
0.220418
0.2204185
0.2204191
0.2204199
0.2204209
0.2204223
0.2204241
0.2204264
0.2204294
0.2204333
0.2204383
0.2204448
0.220453
0.2204634
0.2204766
0.2204932
0.2205139
0.2205396
0.2205712
0.220417
0.220417
0.220417
0.220417
0.2204171
0.2204172
0.2204173
0.2204175
0.2204177
0.220418
0.2204185
0.220419
0.2204198
0.2204207
0.220422
0.2204237
0.2204259
0.2204288
0.2204325
0.2204372
0.2204433
0.2204512
0.2204612
0.2204739
0.22049
0.2205104
0.2205359
0.2205678
0.2206072
0.2206557
0.220417
0.220417
0.220417
0.220417
0.2204171
0.2204172
0.2204173
0.2204175
0.2204177
0.220418
0.2204185
0.220419
0.2204198
0.2204207
0.220422
0.2204237
0.2204259
0.2204288
0.2204324
0.2204372
0.2204433
0.2204511
0.2204611
0.2204739
0.22049
0.2205103
0.2205358
0.2205677
0.2206072
0.2206556
0.2204168
0.2204168
0.2204168
0.2204169
0.2204169
0.2204169
0.220417
0.2204171
0.2204172
0.2204174
0.2204177
0.220418
0.2204185
0.2204191
0.2204199
0.2204209
0.2204223
0.2204241
0.2204264
0.2204294
0.2204333
0.2204383
0.2204448
0.220453
0.2204634
0.2204766
0.2204932
0.2205139
0.2205397
0.2205712
0.2204168
0.2204168
0.2204168
0.2204169
0.2204169
0.2204169
0.220417
0.2204171
0.2204172
0.2204174
0.2204177
0.220418
0.2204185
0.2204191
0.2204199
0.2204209
0.2204223
0.2204241
0.2204264
0.2204294
0.2204333
0.2204383
0.2204448
0.220453
0.2204634
0.2204766
0.2204932
0.2205139
0.2205397
0.2205712
0.220417
0.220417
0.220417
0.220417
0.2204171
0.2204172
0.2204173
0.2204175
0.2204177
0.220418
0.2204185
0.220419
0.2204198
0.2204207
0.220422
0.2204237
0.2204259
0.2204288
0.2204324
0.2204372
0.2204433
0.2204511
0.2204611
0.2204739
0.22049
0.2205103
0.2205358
0.2205677
0.2206072
0.2206556
0.220417
0.220417
0.220417
0.220417
0.2204171
0.2204172
0.2204173
0.2204175
0.2204177
0.220418
0.2204185
0.220419
0.2204198
0.2204207
0.220422
0.2204237
0.2204259
0.2204288
0.2204325
0.2204372
0.2204433
0.2204512
0.2204612
0.2204739
0.22049
0.2205104
0.2205359
0.2205677
0.2206072
0.2206557
0.2204168
0.2204168
0.2204168
0.2204169
0.2204169
0.2204169
0.220417
0.2204171
0.2204172
0.2204174
0.2204177
0.220418
0.2204185
0.2204191
0.2204199
0.2204209
0.2204223
0.2204241
0.2204264
0.2204294
0.2204333
0.2204383
0.2204448
0.220453
0.2204634
0.2204766
0.2204932
0.2205139
0.2205396
0.2205712
0.2204168
0.2204168
0.2204168
0.2204169
0.2204169
0.2204169
0.220417
0.2204171
0.2204172
0.2204174
0.2204177
0.220418
0.2204185
0.2204191
0.2204199
0.2204209
0.2204223
0.2204241
0.2204264
0.2204294
0.2204333
0.2204383
0.2204447
0.2204529
0.2204633
0.2204765
0.2204931
0.2205138
0.2205395
0.220571
0.220417
0.220417
0.220417
0.220417
0.2204171
0.2204172
0.2204173
0.2204175
0.2204177
0.220418
0.2204184
0.220419
0.2204198
0.2204207
0.220422
0.2204237
0.2204259
0.2204287
0.2204324
0.2204372
0.2204433
0.2204511
0.2204611
0.2204738
0.2204899
0.2205102
0.2205356
0.2205674
0.2206068
0.2206552
0.220417
0.220417
0.220417
0.2204171
0.2204171
0.2204172
0.2204173
0.2204175
0.2204177
0.220418
0.2204185
0.220419
0.2204198
0.2204208
0.220422
0.2204237
0.2204259
0.2204288
0.2204325
0.2204373
0.2204434
0.2204512
0.2204613
0.220474
0.2204902
0.2205106
0.2205362
0.2205681
0.2206077
0.2206563
0.2204168
0.2204168
0.2204168
0.2204169
0.2204169
0.2204169
0.220417
0.2204171
0.2204172
0.2204174
0.2204177
0.220418
0.2204185
0.2204191
0.2204199
0.220421
0.2204223
0.2204241
0.2204264
0.2204295
0.2204333
0.2204384
0.2204448
0.220453
0.2204634
0.2204766
0.2204933
0.220514
0.2205398
0.2205714
0.2204168
0.2204168
0.2204168
0.2204169
0.2204169
0.2204169
0.220417
0.2204171
0.2204172
0.2204174
0.2204177
0.220418
0.2204185
0.2204191
0.2204199
0.2204209
0.2204223
0.2204241
0.2204264
0.2204294
0.2204332
0.2204382
0.2204446
0.2204527
0.2204631
0.2204762
0.2204927
0.2205134
0.220539
0.2205704
0.220417
0.220417
0.220417
0.220417
0.2204171
0.2204172
0.2204173
0.2204175
0.2204177
0.220418
0.2204184
0.220419
0.2204197
0.2204207
0.220422
0.2204237
0.2204258
0.2204287
0.2204323
0.220437
0.2204431
0.2204508
0.2204608
0.2204734
0.2204894
0.2205095
0.2205349
0.2205665
0.2206056
0.2206537
0.220417
0.220417
0.220417
0.2204171
0.2204171
0.2204172
0.2204173
0.2204175
0.2204177
0.220418
0.2204185
0.220419
0.2204198
0.2204208
0.2204221
0.2204238
0.220426
0.2204288
0.2204325
0.2204373
0.2204435
0.2204514
0.2204615
0.2204743
0.2204906
0.2205111
0.2205369
0.2205691
0.220609
0.220658
0.2204168
0.2204168
0.2204169
0.2204169
0.2204169
0.2204169
0.220417
0.2204171
0.2204173
0.2204174
0.2204177
0.2204181
0.2204185
0.2204191
0.2204199
0.220421
0.2204224
0.2204241
0.2204265
0.2204295
0.2204334
0.2204385
0.2204449
0.2204532
0.2204637
0.2204769
0.2204936
0.2205145
0.2205404
0.2205721
0.2204169
0.2204169
0.2204169
0.2204169
0.2204169
0.220417
0.220417
0.2204171
0.2204173
0.2204175
0.2204177
0.2204181
0.2204185
0.2204192
0.22042
0.220421
0.2204224
0.2204242
0.2204265
0.2204295
0.2204334
0.2204385
0.2204449
0.2204531
0.2204635
0.2204766
0.2204932
0.2205139
0.2205396
0.2205712
0.2204171
0.2204171
0.2204171
0.2204171
0.2204172
0.2204172
0.2204174
0.2204176
0.2204178
0.2204182
0.2204186
0.2204192
0.22042
0.2204211
0.2204225
0.2204244
0.2204268
0.2204299
0.2204339
0.2204391
0.2204458
0.2204545
0.2204655
0.2204795
0.2204974
0.2205199
0.2205482
0.2205836
0.2206276
0.2206818
0.2204195
0.2204195
0.2204196
0.2204197
0.2204199
0.2204202
0.2204206
0.2204213
0.2204221
0.2204232
0.2204246
0.2204264
0.2204288
0.2204318
0.2204356
0.2204404
0.2204464
0.2204539
0.2204633
0.2204749
0.2204891
0.2205066
0.2205279
0.2205537
0.2205848
0.2206221
0.2206663
0.2207186
0.2207799
0.2208512
0.2204185
0.2204185
0.2204185
0.2204185
0.2204186
0.2204188
0.220419
0.2204193
0.2204198
0.2204204
0.2204212
0.2204222
0.2204235
0.2204252
0.2204273
0.22043
0.2204335
0.2204378
0.2204432
0.2204499
0.2204583
0.2204685
0.2204811
0.2204965
0.2205151
0.2205375
0.2205642
0.2205958
0.2206327
0.2206754
0.2204184
0.2204184
0.2204184
0.2204185
0.2204186
0.2204187
0.2204189
0.2204192
0.2204197
0.2204203
0.220421
0.220422
0.2204233
0.220425
0.2204271
0.2204298
0.2204332
0.2204374
0.2204428
0.2204494
0.2204577
0.2204679
0.2204804
0.2204957
0.2205143
0.2205365
0.2205631
0.2205945
0.2206311
0.2206734
0.2204193
0.2204193
0.2204193
0.2204194
0.2204196
0.2204199
0.2204203
0.2204208
0.2204216
0.2204226
0.2204239
0.2204256
0.2204277
0.2204304
0.2204339
0.2204382
0.2204437
0.2204505
0.220459
0.2204694
0.2204823
0.2204981
0.2205173
0.2205405
0.2205685
0.2206019
0.2206415
0.2206881
0.2207426
0.2208056
0.2204192
0.2204192
0.2204193
0.2204194
0.2204195
0.2204198
0.2204202
0.2204208
0.2204215
0.2204225
0.2204238
0.2204254
0.2204275
0.2204302
0.2204336
0.2204379
0.2204433
0.22045
0.2204583
0.2204686
0.2204813
0.2204968
0.2205157
0.2205385
0.220566
0.2205988
0.2206377
0.2206835
0.2207371
0.2207992
0.2204184
0.2204184
0.2204184
0.2204184
0.2204185
0.2204186
0.2204188
0.2204192
0.2204196
0.2204202
0.2204209
0.2204219
0.2204232
0.2204248
0.2204269
0.2204295
0.2204328
0.220437
0.2204422
0.2204488
0.2204569
0.220467
0.2204793
0.2204943
0.2205126
0.2205345
0.2205607
0.2205916
0.2206278
0.2206697
0.2204184
0.2204184
0.2204184
0.2204184
0.2204185
0.2204186
0.2204189
0.2204192
0.2204196
0.2204202
0.2204209
0.2204219
0.2204232
0.2204248
0.2204269
0.2204296
0.2204329
0.2204371
0.2204424
0.220449
0.2204572
0.2204673
0.2204797
0.2204948
0.2205131
0.2205352
0.2205615
0.2205926
0.2206289
0.2206709
0.2204192
0.2204192
0.2204193
0.2204194
0.2204196
0.2204198
0.2204202
0.2204208
0.2204216
0.2204225
0.2204238
0.2204255
0.2204276
0.2204303
0.2204338
0.2204381
0.2204435
0.2204503
0.2204587
0.2204691
0.2204819
0.2204975
0.2205165
0.2205396
0.2205673
0.2206004
0.2206396
0.2206858
0.2207398
0.2208024
0.2204192
0.2204192
0.2204193
0.2204194
0.2204196
0.2204198
0.2204202
0.2204208
0.2204215
0.2204225
0.2204238
0.2204255
0.2204276
0.2204303
0.2204337
0.220438
0.2204434
0.2204501
0.2204585
0.2204689
0.2204816
0.2204972
0.2205162
0.2205391
0.2205667
0.2205996
0.2206387
0.2206847
0.2207385
0.2208008
0.2204184
0.2204184
0.2204184
0.2204184
0.2204185
0.2204186
0.2204189
0.2204192
0.2204196
0.2204202
0.2204209
0.2204219
0.2204232
0.2204248
0.2204269
0.2204295
0.2204329
0.2204371
0.2204424
0.2204489
0.2204571
0.2204672
0.2204795
0.2204946
0.2205129
0.2205349
0.2205612
0.2205922
0.2206285
0.2206703
0.2204184
0.2204184
0.2204184
0.2204184
0.2204185
0.2204186
0.2204189
0.2204192
0.2204196
0.2204202
0.2204209
0.2204219
0.2204232
0.2204248
0.2204269
0.2204296
0.2204329
0.2204371
0.2204424
0.220449
0.2204572
0.2204673
0.2204796
0.2204948
0.2205131
0.2205351
0.2205614
0.2205925
0.2206288
0.2206707
0.2204192
0.2204192
0.2204193
0.2204194
0.2204196
0.2204198
0.2204202
0.2204208
0.2204215
0.2204225
0.2204238
0.2204255
0.2204276
0.2204303
0.2204337
0.2204381
0.2204435
0.2204502
0.2204586
0.220469
0.2204818
0.2204974
0.2205164
0.2205394
0.220567
0.2206001
0.2206392
0.2206854
0.2207393
0.2208017
0.2204192
0.2204192
0.2204193
0.2204194
0.2204196
0.2204198
0.2204202
0.2204208
0.2204215
0.2204225
0.2204238
0.2204255
0.2204276
0.2204303
0.2204337
0.220438
0.2204435
0.2204502
0.2204586
0.220469
0.2204817
0.2204973
0.2205163
0.2205393
0.220567
0.2206
0.2206391
0.2206853
0.2207391
0.2208015
0.2204184
0.2204184
0.2204184
0.2204184
0.2204185
0.2204186
0.2204189
0.2204192
0.2204196
0.2204202
0.2204209
0.2204219
0.2204232
0.2204248
0.2204269
0.2204296
0.2204329
0.2204371
0.2204424
0.220449
0.2204572
0.2204673
0.2204796
0.2204948
0.2205131
0.2205351
0.2205614
0.2205925
0.2206288
0.2206707
0.2204184
0.2204184
0.2204184
0.2204184
0.2204185
0.2204186
0.2204189
0.2204192
0.2204196
0.2204202
0.2204209
0.2204219
0.2204232
0.2204248
0.2204269
0.2204296
0.2204329
0.2204371
0.2204424
0.220449
0.2204572
0.2204673
0.2204796
0.2204948
0.2205131
0.2205351
0.2205614
0.2205925
0.2206288
0.2206707
0.2204192
0.2204192
0.2204193
0.2204194
0.2204196
0.2204198
0.2204202
0.2204208
0.2204215
0.2204225
0.2204238
0.2204255
0.2204276
0.2204303
0.2204337
0.220438
0.2204435
0.2204502
0.2204586
0.220469
0.2204817
0.2204973
0.2205163
0.2205393
0.220567
0.2206
0.2206391
0.2206852
0.2207391
0.2208015
0.2204192
0.2204192
0.2204193
0.2204194
0.2204196
0.2204198
0.2204202
0.2204208
0.2204215
0.2204225
0.2204238
0.2204255
0.2204276
0.2204303
0.2204337
0.2204381
0.2204435
0.2204502
0.2204586
0.220469
0.2204818
0.2204974
0.2205164
0.2205394
0.220567
0.2206
0.2206392
0.2206853
0.2207392
0.2208016
0.2204184
0.2204184
0.2204184
0.2204184
0.2204185
0.2204186
0.2204189
0.2204192
0.2204196
0.2204202
0.2204209
0.2204219
0.2204232
0.2204248
0.2204269
0.2204296
0.2204329
0.2204371
0.2204424
0.220449
0.2204572
0.2204672
0.2204796
0.2204947
0.2205131
0.2205351
0.2205614
0.2205924
0.2206287
0.2206707
0.2204184
0.2204184
0.2204184
0.2204184
0.2204185
0.2204186
0.2204189
0.2204192
0.2204196
0.2204202
0.2204209
0.2204219
0.2204232
0.2204248
0.2204269
0.2204296
0.2204329
0.2204371
0.2204424
0.2204489
0.2204571
0.2204672
0.2204795
0.2204946
0.2205129
0.2205349
0.2205612
0.2205922
0.2206285
0.2206704
0.2204192
0.2204192
0.2204193
0.2204194
0.2204196
0.2204198
0.2204202
0.2204208
0.2204215
0.2204225
0.2204238
0.2204255
0.2204276
0.2204303
0.2204337
0.220438
0.2204434
0.2204502
0.2204585
0.2204689
0.2204816
0.2204972
0.2205162
0.2205391
0.2205667
0.2205997
0.2206388
0.2206848
0.2207386
0.2208009
0.2204192
0.2204192
0.2204193
0.2204194
0.2204196
0.2204198
0.2204202
0.2204208
0.2204216
0.2204225
0.2204238
0.2204255
0.2204276
0.2204303
0.2204338
0.2204381
0.2204435
0.2204503
0.2204587
0.2204691
0.2204819
0.2204976
0.2205166
0.2205397
0.2205674
0.2206005
0.2206397
0.220686
0.22074
0.2208026
0.2204184
0.2204184
0.2204184
0.2204184
0.2204185
0.2204186
0.2204189
0.2204192
0.2204196
0.2204202
0.2204209
0.2204219
0.2204232
0.2204248
0.2204269
0.2204296
0.2204329
0.2204371
0.2204424
0.220449
0.2204572
0.2204673
0.2204797
0.2204948
0.2205132
0.2205352
0.2205616
0.2205926
0.220629
0.220671
0.2204184
0.2204184
0.2204184
0.2204184
0.2204185
0.2204186
0.2204188
0.2204192
0.2204196
0.2204202
0.2204209
0.2204219
0.2204232
0.2204248
0.2204269
0.2204295
0.2204328
0.220437
0.2204422
0.2204488
0.2204569
0.2204669
0.2204793
0.2204943
0.2205125
0.2205345
0.2205606
0.2205916
0.2206278
0.2206696
0.2204192
0.2204192
0.2204193
0.2204194
0.2204195
0.2204198
0.2204202
0.2204208
0.2204215
0.2204225
0.2204238
0.2204254
0.2204275
0.2204302
0.2204336
0.2204379
0.2204433
0.22045
0.2204583
0.2204686
0.2204813
0.2204968
0.2205156
0.2205384
0.2205659
0.2205987
0.2206376
0.2206834
0.220737
0.220799
0.2204193
0.2204193
0.2204193
0.2204194
0.2204196
0.2204199
0.2204203
0.2204208
0.2204216
0.2204226
0.2204239
0.2204256
0.2204277
0.2204304
0.2204339
0.2204382
0.2204437
0.2204505
0.2204589
0.2204694
0.2204823
0.220498
0.2205172
0.2205404
0.2205684
0.2206017
0.2206413
0.2206879
0.2207424
0.2208054
0.2204184
0.2204184
0.2204184
0.2204185
0.2204185
0.2204187
0.2204189
0.2204192
0.2204197
0.2204202
0.220421
0.220422
0.2204233
0.220425
0.2204271
0.2204297
0.2204331
0.2204374
0.2204427
0.2204494
0.2204576
0.2204678
0.2204803
0.2204956
0.2205141
0.2205364
0.2205629
0.2205942
0.2206308
0.2206731
0.2204185
0.2204185
0.2204185
0.2204185
0.2204186
0.2204188
0.220419
0.2204193
0.2204198
0.2204204
0.2204211
0.2204222
0.2204235
0.2204252
0.2204273
0.22043
0.2204334
0.2204377
0.2204431
0.2204498
0.2204582
0.2204684
0.220481
0.2204963
0.2205149
0.2205372
0.2205639
0.2205954
0.2206323
0.2206749
0.2204195
0.2204195
0.2204196
0.2204197
0.2204199
0.2204202
0.2204206
0.2204212
0.2204221
0.2204232
0.2204246
0.2204264
0.2204288
0.2204318
0.2204356
0.2204403
0.2204463
0.2204538
0.2204632
0.2204747
0.2204889
0.2205064
0.2205276
0.2205534
0.2205844
0.2206215
0.2206657
0.2207179
0.220779
0.2208502
0.2204259
0.220426
0.2204261
0.2204264
0.220427
0.2204278
0.2204289
0.2204303
0.2204323
0.2204348
0.2204381
0.2204421
0.2204471
0.2204533
0.2204609
0.2204702
0.2204815
0.2204951
0.2205114
0.220531
0.2205543
0.2205818
0.2206142
0.2206521
0.2206963
0.2207474
0.2208063
0.2208738
0.2209506
0.2210376
0.2204227
0.2204227
0.2204227
0.2204228
0.220423
0.2204233
0.2204239
0.2204246
0.2204256
0.220427
0.2204287
0.2204309
0.2204337
0.2204372
0.2204415
0.2204468
0.2204532
0.2204612
0.2204708
0.2204824
0.2204963
0.220513
0.2205327
0.220556
0.2205833
0.220615
0.2206515
0.220693
0.2207399
0.2207921
0.2204225
0.2204224
0.2204225
0.2204225
0.2204227
0.2204231
0.2204236
0.2204243
0.2204253
0.2204266
0.2204283
0.2204304
0.2204331
0.2204365
0.2204406
0.2204458
0.2204521
0.2204599
0.2204693
0.2204806
0.2204943
0.2205106
0.22053
0.2205529
0.2205796
0.2206106
0.2206463
0.2206869
0.2207327
0.2207838
0.2204251
0.2204251
0.2204253
0.2204256
0.220426
0.2204267
0.2204277
0.220429
0.2204308
0.2204331
0.2204359
0.2204395
0.220444
0.2204495
0.2204563
0.2204646
0.2204747
0.2204868
0.2205013
0.2205187
0.2205394
0.2205637
0.2205924
0.2206258
0.2206646
0.2207094
0.2207607
0.2208192
0.2208853
0.2209597
0.2204249
0.2204249
0.220425
0.2204253
0.2204258
0.2204264
0.2204274
0.2204287
0.2204304
0.2204327
0.2204355
0.220439
0.2204434
0.2204488
0.2204555
0.2204636
0.2204734
0.2204853
0.2204995
0.2205166
0.2205368
0.2205606
0.2205887
0.2206214
0.2206594
0.2207033
0.2207536
0.220811
0.2208759
0.220949
0.2204222
0.2204222
0.2204222
0.2204223
0.2204225
0.2204228
0.2204233
0.220424
0.220425
0.2204263
0.2204279
0.22043
0.2204326
0.2204359
0.22044
0.220445
0.2204512
0.2204587
0.2204679
0.220479
0.2204924
0.2205083
0.2205273
0.2205497
0.2205759
0.2206063
0.2206413
0.2206813
0.2207264
0.2207767
0.2204222
0.2204222
0.2204222
0.2204223
0.2204225
0.2204229
0.2204234
0.2204241
0.220425
0.2204263
0.220428
0.2204301
0.2204327
0.220436
0.2204401
0.2204452
0.2204514
0.220459
0.2204682
0.2204794
0.2204928
0.2205089
0.220528
0.2205505
0.2205769
0.2206075
0.2206427
0.2206828
0.2207281
0.2207786
0.2204249
0.220425
0.2204251
0.2204254
0.2204258
0.2204265
0.2204275
0.2204288
0.2204305
0.2204328
0.2204356
0.2204392
0.2204436
0.2204491
0.2204558
0.220464
0.2204739
0.2204859
0.2205003
0.2205174
0.2205378
0.2205619
0.2205903
0.2206233
0.2206617
0.220706
0.2207568
0.2208147
0.2208803
0.220954
0.2204249
0.2204249
0.2204251
0.2204253
0.2204258
0.2204265
0.2204275
0.2204288
0.2204305
0.2204327
0.2204355
0.2204391
0.2204435
0.2204489
0.2204556
0.2204638
0.2204737
0.2204856
0.2204999
0.220517
0.2205373
0.2205613
0.2205895
0.2206224
0.2206606
0.2207047
0.2207553
0.2208129
0.2208782
0.2209516
0.2204222
0.2204222
0.2204222
0.2204223
0.2204225
0.2204228
0.2204233
0.2204241
0.220425
0.2204263
0.2204279
0.22043
0.2204327
0.220436
0.2204401
0.2204451
0.2204513
0.2204589
0.2204681
0.2204793
0.2204927
0.2205087
0.2205277
0.2205502
0.2205765
0.220607
0.2206421
0.2206822
0.2207274
0.2207778
0.2204222
0.2204222
0.2204222
0.2204223
0.2204225
0.2204229
0.2204234
0.2204241
0.220425
0.2204263
0.220428
0.22043
0.2204327
0.220436
0.2204401
0.2204452
0.2204514
0.220459
0.2204682
0.2204794
0.2204928
0.2205088
0.2205279
0.2205504
0.2205768
0.2206073
0.2206425
0.2206826
0.2207279
0.2207783
0.2204249
0.220425
0.2204251
0.2204254
0.2204258
0.2204265
0.2204275
0.2204288
0.2204305
0.2204328
0.2204356
0.2204391
0.2204436
0.220449
0.2204557
0.2204639
0.2204738
0.2204858
0.2205001
0.2205173
0.2205376
0.2205617
0.22059
0.220623
0.2206613
0.2207055
0.2207562
0.220814
0.2208794
0.220953
0.2204249
0.2204249
0.2204251
0.2204254
0.2204258
0.2204265
0.2204275
0.2204288
0.2204305
0.2204328
0.2204356
0.2204391
0.2204436
0.220449
0.2204557
0.2204639
0.2204738
0.2204857
0.2205001
0.2205172
0.2205376
0.2205616
0.2205899
0.2206229
0.2206612
0.2207054
0.2207561
0.2208138
0.2208792
0.2209528
0.2204222
0.2204222
0.2204222
0.2204223
0.2204225
0.2204229
0.2204234
0.2204241
0.220425
0.2204263
0.220428
0.22043
0.2204327
0.220436
0.2204401
0.2204452
0.2204514
0.220459
0.2204682
0.2204794
0.2204928
0.2205088
0.2205279
0.2205504
0.2205768
0.2206073
0.2206425
0.2206826
0.2207279
0.2207784
0.2204222
0.2204222
0.2204222
0.2204223
0.2204225
0.2204229