/*--------------------------------*- C++ -*----------------------------------*\
| =========                 |                                                 |
| \\      /  F ield         | OpenFOAM: The Open Source CFD Toolbox           |
|  \\    /   O peration     | Version:  4.0                                   |
|   \\  /    A nd           | Web:      www.OpenFOAM.org                      |
|    \\/     M anipulation  |                                                 |
\*---------------------------------------------------------------------------*/
FoamFile
{
    version     2.0;
    format      ascii;
    class       volScalarField;
    location    "120/air";
    object      XO2air;
}
// * * * * * * * * * * * * * * * * * * * * * * * * * * * * * * * * * * * * * //

dimensions      [0 0 0 0 0 0 0];

internalField   nonuniform List<scalar> 
39776
(
0.1654593
0.1654593
0.1654593
0.1654593
0.1654593
0.1654592
0.1654592
0.1654592
0.1654592
0.1654592
0.1654592
0.1654592
0.1654592
0.1654592
0.1654591
0.165459
0.165459
0.1654588
0.1654586
0.1654583
0.1654579
0.1654573
0.1654564
0.165455
0.1654529
0.1654497
0.1654449
0.1654374
0.1654259
0.1654079
0.1654593
0.1654593
0.1654593
0.1654593
0.1654593
0.1654593
0.1654593
0.1654592
0.1654592
0.1654592
0.1654592
0.1654592
0.1654592
0.1654592
0.1654592
0.1654591
0.1654591
0.165459
0.1654589
0.1654587
0.1654585
0.1654582
0.1654577
0.1654569
0.1654558
0.1654541
0.1654516
0.1654479
0.1654421
0.1654333
0.1654593
0.1654593
0.1654593
0.1654593
0.1654593
0.1654593
0.1654593
0.1654592
0.1654592
0.1654592
0.1654592
0.1654592
0.1654592
0.1654592
0.1654592
0.1654591
0.1654591
0.165459
0.1654589
0.1654587
0.1654585
0.1654582
0.1654576
0.1654569
0.1654558
0.1654541
0.1654515
0.1654477
0.1654418
0.1654328
0.1654593
0.1654593
0.1654593
0.1654593
0.1654593
0.1654592
0.1654592
0.1654592
0.1654592
0.1654592
0.1654592
0.1654592
0.1654592
0.1654592
0.1654591
0.1654591
0.165459
0.1654589
0.1654587
0.1654584
0.165458
0.1654575
0.1654566
0.1654554
0.1654535
0.1654506
0.1654463
0.1654397
0.1654294
0.1654135
0.1654593
0.1654593
0.1654593
0.1654593
0.1654593
0.1654593
0.1654592
0.1654592
0.1654592
0.1654592
0.1654592
0.1654592
0.1654592
0.1654592
0.1654591
0.1654591
0.165459
0.1654589
0.1654587
0.1654584
0.1654581
0.1654575
0.1654567
0.1654555
0.1654537
0.1654509
0.1654467
0.1654402
0.1654303
0.1654148
0.1654593
0.1654593
0.1654593
0.1654593
0.1654593
0.1654593
0.1654593
0.1654593
0.1654592
0.1654592
0.1654592
0.1654592
0.1654592
0.1654592
0.1654592
0.1654591
0.1654591
0.165459
0.1654589
0.1654587
0.1654585
0.1654582
0.1654577
0.1654569
0.1654558
0.1654542
0.1654517
0.1654479
0.1654421
0.1654332
0.1654593
0.1654593
0.1654593
0.1654593
0.1654593
0.1654593
0.1654593
0.1654592
0.1654592
0.1654592
0.1654592
0.1654592
0.1654592
0.1654592
0.1654592
0.1654591
0.1654591
0.165459
0.1654589
0.1654587
0.1654585
0.1654582
0.1654577
0.1654569
0.1654558
0.1654541
0.1654516
0.1654478
0.1654419
0.165433
0.1654593
0.1654593
0.1654593
0.1654593
0.1654593
0.1654592
0.1654592
0.1654592
0.1654592
0.1654592
0.1654592
0.1654592
0.1654592
0.1654592
0.1654591
0.1654591
0.165459
0.1654589
0.1654587
0.1654584
0.165458
0.1654575
0.1654567
0.1654554
0.1654536
0.1654508
0.1654465
0.16544
0.1654299
0.1654142
0.1654593
0.1654593
0.1654593
0.1654593
0.1654593
0.1654593
0.1654592
0.1654592
0.1654592
0.1654592
0.1654592
0.1654592
0.1654592
0.1654592
0.1654591
0.1654591
0.165459
0.1654589
0.1654587
0.1654584
0.1654581
0.1654575
0.1654567
0.1654555
0.1654536
0.1654508
0.1654466
0.1654401
0.1654301
0.1654145
0.1654593
0.1654593
0.1654593
0.1654593
0.1654593
0.1654593
0.1654593
0.1654593
0.1654592
0.1654592
0.1654592
0.1654592
0.1654592
0.1654592
0.1654592
0.1654591
0.1654591
0.165459
0.1654589
0.1654587
0.1654585
0.1654582
0.1654577
0.1654569
0.1654558
0.1654541
0.1654516
0.1654478
0.165442
0.1654331
0.1654593
0.1654593
0.1654593
0.1654593
0.1654593
0.1654593
0.1654593
0.1654593
0.1654592
0.1654592
0.1654592
0.1654592
0.1654592
0.1654592
0.1654592
0.1654591
0.1654591
0.165459
0.1654589
0.1654587
0.1654585
0.1654582
0.1654577
0.1654569
0.1654558
0.1654541
0.1654516
0.1654478
0.165442
0.165433
0.1654593
0.1654593
0.1654593
0.1654593
0.1654593
0.1654593
0.1654592
0.1654592
0.1654592
0.1654592
0.1654592
0.1654592
0.1654592
0.1654592
0.1654591
0.1654591
0.165459
0.1654589
0.1654587
0.1654584
0.1654581
0.1654575
0.1654567
0.1654554
0.1654536
0.1654508
0.1654465
0.16544
0.16543
0.1654144
0.1654593
0.1654593
0.1654593
0.1654593
0.1654593
0.1654593
0.1654592
0.1654592
0.1654592
0.1654592
0.1654592
0.1654592
0.1654592
0.1654592
0.1654591
0.1654591
0.165459
0.1654589
0.1654587
0.1654584
0.1654581
0.1654575
0.1654567
0.1654554
0.1654536
0.1654508
0.1654466
0.16544
0.16543
0.1654144
0.1654593
0.1654593
0.1654593
0.1654593
0.1654593
0.1654593
0.1654593
0.1654593
0.1654592
0.1654592
0.1654592
0.1654592
0.1654592
0.1654592
0.1654592
0.1654591
0.1654591
0.165459
0.1654589
0.1654587
0.1654585
0.1654582
0.1654577
0.1654569
0.1654558
0.1654541
0.1654516
0.1654478
0.165442
0.165433
0.1654593
0.1654593
0.1654593
0.1654593
0.1654593
0.1654593
0.1654593
0.1654592
0.1654592
0.1654592
0.1654592
0.1654592
0.1654592
0.1654592
0.1654592
0.1654591
0.1654591
0.165459
0.1654589
0.1654587
0.1654585
0.1654582
0.1654577
0.1654569
0.1654558
0.1654541
0.1654516
0.1654478
0.165442
0.165433
0.1654593
0.1654593
0.1654593
0.1654593
0.1654593
0.1654592
0.1654592
0.1654592
0.1654592
0.1654592
0.1654592
0.1654592
0.1654592
0.1654592
0.1654591
0.1654591
0.165459
0.1654589
0.1654587
0.1654584
0.1654581
0.1654575
0.1654567
0.1654554
0.1654536
0.1654508
0.1654466
0.16544
0.16543
0.1654144
0.1654593
0.1654593
0.1654593
0.1654593
0.1654593
0.1654593
0.1654592
0.1654592
0.1654592
0.1654592
0.1654592
0.1654592
0.1654592
0.1654592
0.1654591
0.1654591
0.165459
0.1654589
0.1654587
0.1654584
0.1654581
0.1654575
0.1654567
0.1654554
0.1654536
0.1654508
0.1654465
0.16544
0.16543
0.1654144
0.1654593
0.1654593
0.1654593
0.1654593
0.1654593
0.1654593
0.1654593
0.1654593
0.1654592
0.1654592
0.1654592
0.1654592
0.1654592
0.1654592
0.1654592
0.1654591
0.1654591
0.165459
0.1654589
0.1654587
0.1654585
0.1654582
0.1654577
0.1654569
0.1654558
0.1654541
0.1654516
0.1654478
0.1654419
0.165433
0.1654593
0.1654593
0.1654593
0.1654593
0.1654593
0.1654593
0.1654593
0.1654593
0.1654592
0.1654592
0.1654592
0.1654592
0.1654592
0.1654592
0.1654592
0.1654591
0.1654591
0.165459
0.1654589
0.1654587
0.1654585
0.1654582
0.1654577
0.1654569
0.1654558
0.1654541
0.1654516
0.1654478
0.165442
0.1654331
0.1654593
0.1654593
0.1654593
0.1654593
0.1654593
0.1654593
0.1654592
0.1654592
0.1654592
0.1654592
0.1654592
0.1654592
0.1654592
0.1654592
0.1654591
0.1654591
0.165459
0.1654589
0.1654587
0.1654584
0.1654581
0.1654575
0.1654567
0.1654555
0.1654536
0.1654508
0.1654466
0.1654401
0.16543
0.1654145
0.1654593
0.1654593
0.1654593
0.1654593
0.1654593
0.1654593
0.1654592
0.1654592
0.1654592
0.1654592
0.1654592
0.1654592
0.1654592
0.1654592
0.1654591
0.1654591
0.165459
0.1654589
0.1654587
0.1654584
0.165458
0.1654575
0.1654567
0.1654554
0.1654536
0.1654508
0.1654465
0.1654399
0.1654298
0.1654142
0.1654593
0.1654593
0.1654593
0.1654593
0.1654593
0.1654593
0.1654593
0.1654592
0.1654592
0.1654592
0.1654592
0.1654592
0.1654592
0.1654592
0.1654592
0.1654591
0.1654591
0.165459
0.1654589
0.1654587
0.1654585
0.1654582
0.1654577
0.1654569
0.1654558
0.1654541
0.1654516
0.1654477
0.1654419
0.165433
0.1654593
0.1654593
0.1654593
0.1654593
0.1654593
0.1654593
0.1654593
0.1654593
0.1654592
0.1654592
0.1654592
0.1654592
0.1654592
0.1654592
0.1654592
0.1654591
0.1654591
0.165459
0.1654589
0.1654587
0.1654585
0.1654582
0.1654577
0.1654569
0.1654558
0.1654542
0.1654517
0.1654479
0.1654421
0.1654332
0.1654593
0.1654593
0.1654593
0.1654593
0.1654593
0.1654593
0.1654592
0.1654592
0.1654592
0.1654592
0.1654592
0.1654592
0.1654592
0.1654592
0.1654591
0.1654591
0.165459
0.1654589
0.1654587
0.1654584
0.1654581
0.1654575
0.1654567
0.1654555
0.1654537
0.1654509
0.1654467
0.1654402
0.1654303
0.1654148
0.1654593
0.1654593
0.1654593
0.1654593
0.1654593
0.1654592
0.1654592
0.1654592
0.1654592
0.1654592
0.1654592
0.1654592
0.1654592
0.1654592
0.1654591
0.1654591
0.165459
0.1654589
0.1654587
0.1654584
0.165458
0.1654575
0.1654566
0.1654554
0.1654535
0.1654507
0.1654463
0.1654397
0.1654295
0.1654136
0.1654593
0.1654593
0.1654593
0.1654593
0.1654593
0.1654593
0.1654593
0.1654592
0.1654592
0.1654592
0.1654592
0.1654592
0.1654592
0.1654592
0.1654592
0.1654591
0.1654591
0.165459
0.1654589
0.1654587
0.1654585
0.1654582
0.1654577
0.1654569
0.1654558
0.1654541
0.1654516
0.1654477
0.1654419
0.1654329
0.1654593
0.1654593
0.1654593
0.1654593
0.1654593
0.1654593
0.1654593
0.1654592
0.1654592
0.1654592
0.1654592
0.1654592
0.1654592
0.1654592
0.1654592
0.1654591
0.1654591
0.165459
0.1654589
0.1654587
0.1654585
0.1654582
0.1654577
0.1654569
0.1654558
0.1654542
0.1654517
0.1654479
0.1654422
0.1654334
0.1654593
0.1654593
0.1654593
0.1654593
0.1654593
0.1654592
0.1654592
0.1654592
0.1654592
0.1654592
0.1654592
0.1654592
0.1654592
0.1654592
0.1654591
0.165459
0.165459
0.1654588
0.1654586
0.1654583
0.1654579
0.1654573
0.1654564
0.165455
0.1654529
0.1654498
0.165445
0.1654376
0.1654261
0.1654081
0.165459
0.165459
0.165459
0.165459
0.165459
0.165459
0.1654589
0.1654588
0.1654587
0.1654586
0.1654584
0.1654581
0.1654577
0.1654572
0.1654566
0.1654557
0.1654545
0.1654529
0.1654508
0.165448
0.1654444
0.1654396
0.1654334
0.1654252
0.1654147
0.1654011
0.1653836
0.1653613
0.165333
0.1652974
0.1654591
0.1654591
0.1654591
0.1654591
0.1654591
0.1654591
0.1654591
0.165459
0.165459
0.1654589
0.1654588
0.1654586
0.1654584
0.1654581
0.1654578
0.1654573
0.1654566
0.1654558
0.1654546
0.165453
0.165451
0.1654483
0.1654448
0.1654402
0.1654342
0.1654264
0.1654163
0.1654034
0.165387
0.1653663
0.1654591
0.1654591
0.1654591
0.1654591
0.1654591
0.1654591
0.1654591
0.165459
0.165459
0.1654589
0.1654588
0.1654586
0.1654584
0.1654581
0.1654578
0.1654573
0.1654566
0.1654557
0.1654545
0.165453
0.1654509
0.1654482
0.1654446
0.1654399
0.1654337
0.1654258
0.1654155
0.1654024
0.1653857
0.1653648
0.1654591
0.1654591
0.165459
0.165459
0.165459
0.165459
0.1654589
0.1654589
0.1654588
0.1654586
0.1654584
0.1654582
0.1654578
0.1654574
0.1654567
0.1654559
0.1654548
0.1654533
0.1654513
0.1654487
0.1654453
0.1654409
0.165435
0.1654274
0.1654176
0.165405
0.1653887
0.165368
0.1653418
0.1653088
0.1654591
0.1654591
0.1654591
0.165459
0.165459
0.165459
0.1654589
0.1654589
0.1654588
0.1654586
0.1654584
0.1654582
0.1654578
0.1654574
0.1654568
0.1654559
0.1654548
0.1654534
0.1654514
0.1654489
0.1654456
0.1654412
0.1654355
0.165428
0.1654184
0.165406
0.1653901
0.1653698
0.1653441
0.1653119
0.1654591
0.1654591
0.1654591
0.1654591
0.1654591
0.1654591
0.1654591
0.165459
0.165459
0.1654589
0.1654588
0.1654586
0.1654584
0.1654582
0.1654578
0.1654573
0.1654566
0.1654558
0.1654546
0.165453
0.165451
0.1654483
0.1654447
0.1654401
0.165434
0.1654262
0.165416
0.1654031
0.1653865
0.1653658
0.1654591
0.1654591
0.1654591
0.1654591
0.1654591
0.1654591
0.1654591
0.165459
0.165459
0.1654589
0.1654588
0.1654586
0.1654584
0.1654581
0.1654578
0.1654573
0.1654566
0.1654557
0.1654546
0.165453
0.1654509
0.1654482
0.1654446
0.1654399
0.1654338
0.1654259
0.1654157
0.1654027
0.1653861
0.1653652
0.1654591
0.1654591
0.1654591
0.165459
0.165459
0.165459
0.1654589
0.1654589
0.1654588
0.1654586
0.1654584
0.1654582
0.1654578
0.1654574
0.1654567
0.1654559
0.1654548
0.1654533
0.1654514
0.1654488
0.1654454
0.165441
0.1654352
0.1654277
0.1654179
0.1654054
0.1653893
0.1653688
0.1653428
0.1653103
0.1654591
0.1654591
0.1654591
0.165459
0.165459
0.165459
0.1654589
0.1654589
0.1654588
0.1654586
0.1654584
0.1654582
0.1654578
0.1654574
0.1654567
0.1654559
0.1654548
0.1654533
0.1654514
0.1654488
0.1654455
0.165441
0.1654353
0.1654278
0.1654181
0.1654056
0.1653896
0.1653692
0.1653434
0.1653109
0.1654591
0.1654591
0.1654591
0.1654591
0.1654591
0.1654591
0.1654591
0.165459
0.165459
0.1654589
0.1654588
0.1654586
0.1654584
0.1654581
0.1654578
0.1654573
0.1654566
0.1654557
0.1654546
0.165453
0.165451
0.1654482
0.1654447
0.16544
0.1654339
0.165426
0.1654158
0.1654028
0.1653862
0.1653654
0.1654591
0.1654591
0.1654591
0.1654591
0.1654591
0.1654591
0.1654591
0.165459
0.165459
0.1654589
0.1654588
0.1654586
0.1654584
0.1654581
0.1654578
0.1654573
0.1654566
0.1654557
0.1654546
0.165453
0.1654509
0.1654482
0.1654446
0.16544
0.1654339
0.165426
0.1654158
0.1654027
0.1653861
0.1653652
0.1654591
0.1654591
0.1654591
0.165459
0.165459
0.165459
0.1654589
0.1654589
0.1654588
0.1654586
0.1654584
0.1654582
0.1654578
0.1654574
0.1654567
0.1654559
0.1654548
0.1654533
0.1654514
0.1654488
0.1654454
0.165441
0.1654352
0.1654277
0.165418
0.1654055
0.1653894
0.165369
0.165343
0.1653105
0.1654591
0.1654591
0.1654591
0.165459
0.165459
0.165459
0.1654589
0.1654589
0.1654588
0.1654586
0.1654584
0.1654582
0.1654578
0.1654574
0.1654567
0.1654559
0.1654548
0.1654533
0.1654514
0.1654488
0.1654454
0.165441
0.1654352
0.1654277
0.165418
0.1654055
0.1653895
0.165369
0.1653431
0.1653106
0.1654591
0.1654591
0.1654591
0.1654591
0.1654591
0.1654591
0.1654591
0.165459
0.165459
0.1654589
0.1654588
0.1654586
0.1654584
0.1654581
0.1654578
0.1654573
0.1654566
0.1654557
0.1654546
0.165453
0.1654509
0.1654482
0.1654446
0.16544
0.1654339
0.1654259
0.1654158
0.1654027
0.1653861
0.1653652
0.1654591
0.1654591
0.1654591
0.1654591
0.1654591
0.1654591
0.1654591
0.165459
0.165459
0.1654589
0.1654588
0.1654586
0.1654584
0.1654581
0.1654578
0.1654573
0.1654566
0.1654557
0.1654546
0.165453
0.1654509
0.1654482
0.1654446
0.16544
0.1654339
0.1654259
0.1654158
0.1654027
0.1653861
0.1653652
0.1654591
0.1654591
0.1654591
0.165459
0.165459
0.165459
0.1654589
0.1654589
0.1654588
0.1654586
0.1654584
0.1654582
0.1654578
0.1654574
0.1654567
0.1654559
0.1654548
0.1654533
0.1654514
0.1654488
0.1654454
0.165441
0.1654352
0.1654277
0.165418
0.1654055
0.1653895
0.165369
0.1653431
0.1653106
0.1654591
0.1654591
0.1654591
0.165459
0.165459
0.165459
0.1654589
0.1654589
0.1654588
0.1654586
0.1654584
0.1654582
0.1654578
0.1654574
0.1654567
0.1654559
0.1654548
0.1654533
0.1654514
0.1654488
0.1654454
0.165441
0.1654352
0.1654277
0.165418
0.1654055
0.1653894
0.165369
0.1653431
0.1653106
0.1654591
0.1654591
0.1654591
0.1654591
0.1654591
0.1654591
0.1654591
0.165459
0.165459
0.1654589
0.1654588
0.1654586
0.1654584
0.1654581
0.1654578
0.1654573
0.1654566
0.1654557
0.1654546
0.165453
0.1654509
0.1654482
0.1654446
0.16544
0.1654339
0.165426
0.1654158
0.1654027
0.1653861
0.1653653
0.1654591
0.1654591
0.1654591
0.1654591
0.1654591
0.1654591
0.1654591
0.165459
0.165459
0.1654589
0.1654588
0.1654586
0.1654584
0.1654581
0.1654578
0.1654573
0.1654566
0.1654557
0.1654546
0.165453
0.1654509
0.1654482
0.1654447
0.16544
0.1654339
0.165426
0.1654158
0.1654028
0.1653862
0.1653654
0.1654591
0.1654591
0.1654591
0.165459
0.165459
0.165459
0.1654589
0.1654589
0.1654588
0.1654586
0.1654584
0.1654582
0.1654578
0.1654574
0.1654567
0.1654559
0.1654548
0.1654533
0.1654514
0.1654488
0.1654454
0.165441
0.1654353
0.1654278
0.1654181
0.1654056
0.1653896
0.1653692
0.1653433
0.1653109
0.1654591
0.1654591
0.1654591
0.165459
0.165459
0.165459
0.1654589
0.1654589
0.1654588
0.1654586
0.1654584
0.1654582
0.1654578
0.1654574
0.1654567
0.1654559
0.1654548
0.1654533
0.1654513
0.1654488
0.1654454
0.1654409
0.1654352
0.1654276
0.1654179
0.1654053
0.1653892
0.1653687
0.1653427
0.1653101
0.1654591
0.1654591
0.1654591
0.1654591
0.1654591
0.1654591
0.1654591
0.165459
0.165459
0.1654589
0.1654588
0.1654586
0.1654584
0.1654581
0.1654578
0.1654573
0.1654566
0.1654557
0.1654546
0.165453
0.1654509
0.1654482
0.1654446
0.1654399
0.1654338
0.1654259
0.1654157
0.1654026
0.165386
0.1653652
0.1654591
0.1654591
0.1654591
0.1654591
0.1654591
0.1654591
0.1654591
0.165459
0.165459
0.1654589
0.1654588
0.1654586
0.1654584
0.1654582
0.1654578
0.1654573
0.1654566
0.1654558
0.1654546
0.1654531
0.165451
0.1654483
0.1654447
0.1654401
0.165434
0.1654262
0.1654161
0.1654031
0.1653866
0.1653658
0.1654591
0.1654591
0.1654591
0.165459
0.165459
0.165459
0.1654589
0.1654589
0.1654588
0.1654586
0.1654584
0.1654582
0.1654578
0.1654574
0.1654568
0.1654559
0.1654548
0.1654534
0.1654514
0.1654489
0.1654456
0.1654412
0.1654355
0.165428
0.1654184
0.165406
0.1653901
0.1653698
0.1653442
0.165312
0.1654591
0.1654591
0.165459
0.165459
0.165459
0.165459
0.1654589
0.1654589
0.1654588
0.1654586
0.1654584
0.1654582
0.1654578
0.1654574
0.1654567
0.1654559
0.1654548
0.1654533
0.1654513
0.1654487
0.1654453
0.1654409
0.1654351
0.1654275
0.1654177
0.165405
0.1653888
0.1653681
0.1653419
0.165309
0.1654591
0.1654591
0.1654591
0.1654591
0.1654591
0.1654591
0.1654591
0.165459
0.165459
0.1654589
0.1654588
0.1654586
0.1654584
0.1654581
0.1654578
0.1654573
0.1654566
0.1654557
0.1654546
0.165453
0.1654509
0.1654482
0.1654446
0.1654399
0.1654338
0.1654258
0.1654156
0.1654025
0.1653859
0.1653649
0.1654591
0.1654591
0.1654591
0.1654591
0.1654591
0.1654591
0.1654591
0.165459
0.165459
0.1654589
0.1654588
0.1654586
0.1654584
0.1654581
0.1654578
0.1654573
0.1654566
0.1654558
0.1654546
0.1654531
0.165451
0.1654484
0.1654448
0.1654402
0.1654342
0.1654265
0.1654165
0.1654036
0.1653872
0.1653666
0.165459
0.165459
0.165459
0.165459
0.165459
0.165459
0.1654589
0.1654588
0.1654587
0.1654586
0.1654584
0.1654581
0.1654577
0.1654572
0.1654566
0.1654557
0.1654545
0.1654529
0.1654508
0.1654481
0.1654444
0.1654397
0.1654335
0.1654254
0.1654149
0.1654013
0.1653839
0.1653616
0.1653334
0.1652979
0.1654581
0.1654581
0.1654581
0.165458
0.1654579
0.1654578
0.1654576
0.1654573
0.1654569
0.1654564
0.1654557
0.1654548
0.1654537
0.1654522
0.1654502
0.1654477
0.1654445
0.1654404
0.1654352
0.1654287
0.1654204
0.1654101
0.1653973
0.1653815
0.1653621
0.1653384
0.1653097
0.1652753
0.1652343
0.1651858
0.1654585
0.1654585
0.1654585
0.1654585
0.1654585
0.1654584
0.1654583
0.1654582
0.165458
0.1654577
0.1654573
0.1654569
0.1654563
0.1654555
0.1654544
0.1654531
0.1654513
0.1654491
0.1654462
0.1654426
0.165438
0.1654321
0.1654248
0.1654156
0.1654043
0.1653904
0.1653734
0.1653528
0.1653282
0.1652992
0.1654585
0.1654585
0.1654585
0.1654585
0.1654585
0.1654584
0.1654583
0.1654582
0.165458
0.1654577
0.1654574
0.1654569
0.1654563
0.1654555
0.1654545
0.1654531
0.1654514
0.1654491
0.1654463
0.1654426
0.1654379
0.1654321
0.1654247
0.1654155
0.165404
0.16539
0.1653729
0.1653522
0.1653276
0.1652986
0.1654582
0.1654582
0.1654581
0.1654581
0.165458
0.1654579
0.1654577
0.1654574
0.1654571
0.1654566
0.165456
0.1654552
0.1654541
0.1654527
0.1654509
0.1654486
0.1654456
0.1654418
0.165437
0.165431
0.1654234
0.1654139
0.1654021
0.1653875
0.1653697
0.165348
0.1653217
0.1652903
0.165253
0.1652091
0.1654582
0.1654582
0.1654582
0.1654581
0.165458
0.1654579
0.1654577
0.1654575
0.1654571
0.1654567
0.165456
0.1654552
0.1654542
0.1654528
0.165451
0.1654487
0.1654458
0.1654421
0.1654374
0.1654314
0.165424
0.1654146
0.1654031
0.1653888
0.1653713
0.16535
0.1653243
0.1652934
0.1652568
0.1652137
0.1654586
0.1654586
0.1654586
0.1654585
0.1654585
0.1654584
0.1654583
0.1654582
0.165458
0.1654578
0.1654574
0.165457
0.1654564
0.1654556
0.1654546
0.1654532
0.1654515
0.1654493
0.1654465
0.1654429
0.1654383
0.1654325
0.1654252
0.1654162
0.1654049
0.1653911
0.1653742
0.1653538
0.1653294
0.1653007
0.1654586
0.1654586
0.1654585
0.1654585
0.1654585
0.1654584
0.1654583
0.1654582
0.165458
0.1654577
0.1654574
0.1654569
0.1654563
0.1654555
0.1654545
0.1654532
0.1654515
0.1654492
0.1654464
0.1654428
0.1654381
0.1654323
0.165425
0.1654159
0.1654045
0.1653906
0.1653736
0.1653531
0.1653286
0.1652998
0.1654582
0.1654582
0.1654582
0.1654581
0.165458
0.1654579
0.1654577
0.1654575
0.1654571
0.1654566
0.165456
0.1654552
0.1654541
0.1654527
0.1654509
0.1654486
0.1654457
0.1654419
0.1654372
0.1654312
0.1654236
0.1654142
0.1654025
0.1653881
0.1653704
0.1653489
0.1653229
0.1652918
0.1652548
0.1652113
0.1654582
0.1654582
0.1654582
0.1654581
0.165458
0.1654579
0.1654577
0.1654575
0.1654571
0.1654566
0.165456
0.1654552
0.1654541
0.1654528
0.165451
0.1654487
0.1654457
0.165442
0.1654373
0.1654313
0.1654238
0.1654144
0.1654027
0.1653884
0.1653708
0.1653494
0.1653235
0.1652925
0.1652557
0.1652125
0.1654586
0.1654586
0.1654585
0.1654585
0.1654585
0.1654584
0.1654583
0.1654582
0.165458
0.1654578
0.1654574
0.1654569
0.1654563
0.1654556
0.1654545
0.1654532
0.1654515
0.1654493
0.1654464
0.1654428
0.1654382
0.1654324
0.1654251
0.165416
0.1654047
0.1653908
0.1653738
0.1653534
0.1653289
0.1653002
0.1654586
0.1654586
0.1654585
0.1654585
0.1654585
0.1654584
0.1654583
0.1654582
0.165458
0.1654577
0.1654574
0.1654569
0.1654563
0.1654555
0.1654545
0.1654532
0.1654515
0.1654492
0.1654464
0.1654428
0.1654382
0.1654323
0.165425
0.1654159
0.1654046
0.1653906
0.1653737
0.1653532
0.1653287
0.1652999
0.1654582
0.1654582
0.1654582
0.1654581
0.165458
0.1654579
0.1654577
0.1654575
0.1654571
0.1654566
0.165456
0.1654552
0.1654541
0.1654527
0.165451
0.1654487
0.1654457
0.165442
0.1654372
0.1654312
0.1654237
0.1654143
0.1654026
0.1653882
0.1653706
0.1653491
0.1653232
0.1652921
0.1652552
0.1652118
0.1654582
0.1654582
0.1654582
0.1654581
0.165458
0.1654579
0.1654577
0.1654575
0.1654571
0.1654566
0.165456
0.1654552
0.1654541
0.1654527
0.165451
0.1654487
0.1654457
0.165442
0.1654372
0.1654312
0.1654237
0.1654143
0.1654026
0.1653882
0.1653706
0.1653491
0.1653232
0.1652922
0.1652553
0.1652119
0.1654586
0.1654586
0.1654585
0.1654585
0.1654585
0.1654584
0.1654583
0.1654582
0.165458
0.1654577
0.1654574
0.1654569
0.1654563
0.1654555
0.1654545
0.1654532
0.1654515
0.1654492
0.1654464
0.1654428
0.1654382
0.1654323
0.165425
0.1654159
0.1654046
0.1653906
0.1653737
0.1653532
0.1653287
0.1652999
0.1654586
0.1654586
0.1654585
0.1654585
0.1654585
0.1654584
0.1654583
0.1654582
0.165458
0.1654577
0.1654574
0.1654569
0.1654563
0.1654555
0.1654545
0.1654532
0.1654515
0.1654492
0.1654464
0.1654428
0.1654382
0.1654323
0.165425
0.1654159
0.1654046
0.1653906
0.1653737
0.1653532
0.1653287
0.1652999
0.1654582
0.1654582
0.1654582
0.1654581
0.165458
0.1654579
0.1654577
0.1654575
0.1654571
0.1654566
0.165456
0.1654552
0.1654541
0.1654527
0.165451
0.1654487
0.1654457
0.165442
0.1654372
0.1654312
0.1654237
0.1654143
0.1654026
0.1653882
0.1653706
0.1653492
0.1653232
0.1652922
0.1652553
0.165212
0.1654582
0.1654582
0.1654582
0.1654581
0.165458
0.1654579
0.1654577
0.1654575
0.1654571
0.1654566
0.165456
0.1654552
0.1654541
0.1654527
0.165451
0.1654487
0.1654457
0.165442
0.1654372
0.1654312
0.1654237
0.1654143
0.1654026
0.1653882
0.1653706
0.1653491
0.1653232
0.1652921
0.1652552
0.1652119
0.1654586
0.1654586
0.1654585
0.1654585
0.1654585
0.1654584
0.1654583
0.1654582
0.165458
0.1654577
0.1654574
0.1654569
0.1654563
0.1654555
0.1654545
0.1654532
0.1654515
0.1654492
0.1654464
0.1654428
0.1654382
0.1654323
0.165425
0.1654159
0.1654046
0.1653906
0.1653737
0.1653532
0.1653287
0.1652999
0.1654586
0.1654586
0.1654585
0.1654585
0.1654585
0.1654584
0.1654583
0.1654582
0.165458
0.1654578
0.1654574
0.1654569
0.1654563
0.1654556
0.1654545
0.1654532
0.1654515
0.1654493
0.1654464
0.1654428
0.1654382
0.1654324
0.1654251
0.1654159
0.1654046
0.1653907
0.1653738
0.1653533
0.1653289
0.1653001
0.1654582
0.1654582
0.1654582
0.1654581
0.165458
0.1654579
0.1654577
0.1654575
0.1654571
0.1654566
0.165456
0.1654552
0.1654541
0.1654528
0.165451
0.1654487
0.1654457
0.165442
0.1654373
0.1654313
0.1654238
0.1654144
0.1654027
0.1653884
0.1653708
0.1653494
0.1653235
0.1652925
0.1652557
0.1652124
0.1654582
0.1654582
0.1654582
0.1654581
0.165458
0.1654579
0.1654577
0.1654575
0.1654571
0.1654566
0.165456
0.1654552
0.1654541
0.1654527
0.1654509
0.1654486
0.1654457
0.1654419
0.1654372
0.1654311
0.1654236
0.1654142
0.1654025
0.165388
0.1653703
0.1653488
0.1653228
0.1652917
0.1652547
0.1652112
0.1654586
0.1654586
0.1654585
0.1654585
0.1654585
0.1654584
0.1654583
0.1654582
0.165458
0.1654577
0.1654574
0.1654569
0.1654563
0.1654555
0.1654545
0.1654532
0.1654515
0.1654492
0.1654464
0.1654427
0.1654381
0.1654323
0.165425
0.1654158
0.1654045
0.1653906
0.1653736
0.165353
0.1653286
0.1652997
0.1654586
0.1654586
0.1654586
0.1654585
0.1654585
0.1654584
0.1654583
0.1654582
0.165458
0.1654578
0.1654574
0.165457
0.1654564
0.1654556
0.1654546
0.1654532
0.1654515
0.1654493
0.1654465
0.1654429
0.1654383
0.1654325
0.1654252
0.1654162
0.1654049
0.1653911
0.1653742
0.1653538
0.1653294
0.1653007
0.1654582
0.1654582
0.1654582
0.1654581
0.165458
0.1654579
0.1654577
0.1654575
0.1654571
0.1654567
0.165456
0.1654552
0.1654542
0.1654528
0.165451
0.1654488
0.1654458
0.1654421
0.1654374
0.1654315
0.165424
0.1654147
0.1654031
0.1653888
0.1653713
0.1653501
0.1653243
0.1652935
0.1652569
0.1652138
0.1654582
0.1654582
0.1654581
0.1654581
0.165458
0.1654579
0.1654577
0.1654574
0.1654571
0.1654566
0.165456
0.1654552
0.1654541
0.1654527
0.1654509
0.1654486
0.1654456
0.1654418
0.165437
0.165431
0.1654234
0.1654139
0.1654021
0.1653876
0.1653698
0.1653481
0.1653218
0.1652904
0.1652531
0.1652093
0.1654585
0.1654585
0.1654585
0.1654585
0.1654585
0.1654584
0.1654583
0.1654582
0.165458
0.1654577
0.1654574
0.1654569
0.1654563
0.1654555
0.1654545
0.1654531
0.1654514
0.1654492
0.1654463
0.1654426
0.165438
0.1654321
0.1654247
0.1654155
0.1654041
0.1653901
0.165373
0.1653524
0.1653278
0.1652988
0.1654585
0.1654585
0.1654585
0.1654585
0.1654585
0.1654584
0.1654583
0.1654582
0.165458
0.1654577
0.1654573
0.1654569
0.1654563
0.1654555
0.1654544
0.1654531
0.1654513
0.1654491
0.1654463
0.1654426
0.165438
0.1654322
0.1654249
0.1654158
0.1654044
0.1653905
0.1653736
0.1653531
0.1653285
0.1652996
0.1654581
0.1654581
0.1654581
0.165458
0.1654579
0.1654578
0.1654576
0.1654573
0.1654569
0.1654564
0.1654557
0.1654549
0.1654537
0.1654522
0.1654503
0.1654478
0.1654446
0.1654405
0.1654353
0.1654287
0.1654205
0.1654102
0.1653975
0.1653817
0.1653623
0.1653387
0.1653101
0.1652758
0.1652348
0.1651865
0.1654554
0.1654553
0.1654553
0.1654551
0.1654549
0.1654545
0.1654539
0.1654532
0.1654522
0.1654509
0.1654492
0.1654471
0.1654445
0.1654411
0.1654369
0.1654317
0.1654253
0.1654174
0.1654077
0.165396
0.1653818
0.1653647
0.1653442
0.1653199
0.1652912
0.1652574
0.1652179
0.1651721
0.1651193
0.1650588
0.1654568
0.1654568
0.1654568
0.1654568
0.1654567
0.1654565
0.1654563
0.1654559
0.1654554
0.1654548
0.165454
0.1654529
0.1654515
0.1654497
0.1654475
0.1654447
0.1654412
0.1654368
0.1654314
0.1654248
0.1654166
0.1654067
0.1653946
0.1653801
0.1653628
0.1653423
0.1653182
0.1652902
0.1652582
0.1652218
0.1654569
0.1654569
0.1654569
0.1654569
0.1654568
0.1654566
0.1654564
0.165456
0.1654556
0.1654549
0.1654541
0.165453
0.1654517
0.1654499
0.1654478
0.165445
0.1654415
0.1654372
0.1654319
0.1654253
0.1654172
0.1654073
0.1653953
0.1653809
0.1653637
0.1653434
0.1653196
0.165292
0.1652603
0.1652245
0.1654557
0.1654556
0.1654556
0.1654554
0.1654552
0.1654549
0.1654544
0.1654537
0.1654528
0.1654516
0.1654501
0.1654482
0.1654457
0.1654427
0.1654389
0.1654342
0.1654283
0.1654212
0.1654124
0.1654018
0.1653889
0.1653735
0.165355
0.1653331
0.1653073
0.1652771
0.1652419
0.1652013
0.1651548
0.1651018
0.1654558
0.1654557
0.1654557
0.1654555
0.1654553
0.165455
0.1654545
0.1654538
0.1654529
0.1654518
0.1654503
0.1654484
0.1654461
0.1654431
0.1654394
0.1654347
0.165429
0.165422
0.1654135
0.1654031
0.1653905
0.1653754
0.1653574
0.165336
0.1653108
0.1652812
0.1652468
0.1652071
0.1651616
0.1651097
0.165457
0.165457
0.165457
0.1654569
0.1654569
0.1654567
0.1654565
0.1654561
0.1654557
0.1654551
0.1654543
0.1654532
0.1654519
0.1654502
0.165448
0.1654453
0.165442
0.1654378
0.1654325
0.1654261
0.1654182
0.1654085
0.1653968
0.1653826
0.1653657
0.1653458
0.1653224
0.1652952
0.165264
0.1652286
0.165457
0.165457
0.165457
0.1654569
0.1654568
0.1654567
0.1654565
0.1654561
0.1654557
0.165455
0.1654542
0.1654532
0.1654518
0.1654501
0.165448
0.1654452
0.1654418
0.1654376
0.1654323
0.1654258
0.1654178
0.1654081
0.1653963
0.165382
0.1653651
0.165345
0.1653214
0.1652941
0.1652627
0.1652272
0.1654557
0.1654557
0.1654556
0.1654555
0.1654553
0.1654549
0.1654544
0.1654538
0.1654529
0.1654517
0.1654502
0.1654483
0.1654459
0.1654429
0.1654392
0.1654345
0.1654287
0.1654217
0.165413
0.1654025
0.1653898
0.1653745
0.1653563
0.1653347
0.1653091
0.1652793
0.1652445
0.1652043
0.1651582
0.1651058
0.1654557
0.1654557
0.1654557
0.1654555
0.1654553
0.1654549
0.1654545
0.1654538
0.1654529
0.1654518
0.1654503
0.1654484
0.165446
0.165443
0.1654393
0.1654346
0.1654289
0.1654218
0.1654132
0.1654028
0.1653901
0.1653749
0.1653568
0.1653353
0.1653099
0.1652802
0.1652456
0.1652056
0.1651598
0.1651076
0.165457
0.165457
0.165457
0.1654569
0.1654568
0.1654567
0.1654565
0.1654561
0.1654557
0.165455
0.1654542
0.1654532
0.1654518
0.1654501
0.165448
0.1654453
0.1654419
0.1654376
0.1654324
0.1654259
0.1654179
0.1654082
0.1653965
0.1653823
0.1653653
0.1653453
0.1653218
0.1652945
0.1652632
0.1652277
0.165457
0.165457
0.165457
0.1654569
0.1654568
0.1654567
0.1654565
0.1654561
0.1654557
0.165455
0.1654542
0.1654532
0.1654518
0.1654501
0.165448
0.1654452
0.1654418
0.1654376
0.1654323
0.1654258
0.1654179
0.1654081
0.1653963
0.1653821
0.1653651
0.1653451
0.1653215
0.1652942
0.1652629
0.1652274
0.1654557
0.1654557
0.1654556
0.1654555
0.1654553
0.1654549
0.1654545
0.1654538
0.1654529
0.1654517
0.1654503
0.1654484
0.165446
0.165443
0.1654392
0.1654345
0.1654288
0.1654217
0.1654131
0.1654026
0.1653899
0.1653747
0.1653565
0.1653349
0.1653095
0.1652796
0.1652449
0.1652049
0.1651589
0.1651066
0.1654557
0.1654557
0.1654556
0.1654555
0.1654553
0.1654549
0.1654545
0.1654538
0.1654529
0.1654517
0.1654503
0.1654484
0.165446
0.165443
0.1654392
0.1654346
0.1654288
0.1654217
0.1654131
0.1654026
0.16539
0.1653747
0.1653566
0.165335
0.1653095
0.1652797
0.165245
0.165205
0.165159
0.1651067
0.165457
0.165457
0.165457
0.1654569
0.1654568
0.1654567
0.1654565
0.1654561
0.1654557
0.165455
0.1654542
0.1654532
0.1654518
0.1654501
0.165448
0.1654453
0.1654418
0.1654376
0.1654323
0.1654258
0.1654179
0.1654081
0.1653963
0.1653821
0.1653651
0.1653451
0.1653215
0.1652942
0.1652628
0.1652273
0.165457
0.165457
0.165457
0.1654569
0.1654568
0.1654567
0.1654565
0.1654561