/*--------------------------------*- C++ -*----------------------------------*\
| =========                 |                                                 |
| \\      /  F ield         | OpenFOAM: The Open Source CFD Toolbox           |
|  \\    /   O peration     | Version:  4.0                                   |
|   \\  /    A nd           | Web:      www.OpenFOAM.org                      |
|    \\/     M anipulation  |                                                 |
\*---------------------------------------------------------------------------*/
FoamFile
{
    version     2.0;
    format      ascii;
    class       volScalarField;
    location    "120/air";
    object      YH2Oair;
}
// * * * * * * * * * * * * * * * * * * * * * * * * * * * * * * * * * * * * * //

dimensions      [0 0 0 0 0 0 0];

internalField   nonuniform List<scalar> 
39776
(
0.15
0.15
0.15
0.15
0.15
0.15
0.15
0.15
0.1500001
0.1500001
0.1500001
0.1500001
0.1500002
0.1500002
0.1500003
0.1500004
0.1500006
0.1500008
0.1500012
0.1500016
0.1500023
0.1500033
0.1500048
0.1500069
0.15001
0.1500145
0.1500213
0.1500313
0.1500465
0.1500693
0.15
0.15
0.15
0.15
0.15
0.15
0.15
0.15
0.15
0.15
0.1500001
0.1500001
0.1500001
0.1500001
0.1500002
0.1500003
0.1500004
0.1500005
0.1500007
0.150001
0.1500014
0.1500019
0.1500027
0.1500039
0.1500056
0.1500081
0.1500116
0.1500169
0.1500246
0.1500361
0.15
0.15
0.15
0.15
0.15
0.15
0.15
0.15
0.15
0.15
0.1500001
0.1500001
0.1500001
0.1500001
0.1500002
0.1500003
0.1500004
0.1500005
0.1500007
0.150001
0.1500014
0.1500019
0.1500027
0.1500039
0.1500056
0.1500081
0.1500117
0.1500169
0.1500247
0.1500363
0.15
0.15
0.15
0.15
0.15
0.15
0.15
0.15
0.1500001
0.1500001
0.1500001
0.1500001
0.1500002
0.1500002
0.1500003
0.1500004
0.1500005
0.1500008
0.1500011
0.1500015
0.1500021
0.150003
0.1500043
0.1500061
0.1500089
0.1500129
0.1500188
0.1500276
0.1500407
0.1500605
0.15
0.15
0.15
0.15
0.15
0.15
0.15
0.15
0.1500001
0.1500001
0.1500001
0.1500001
0.1500001
0.1500002
0.1500003
0.1500004
0.1500005
0.1500007
0.150001
0.1500014
0.150002
0.1500029
0.1500042
0.150006
0.1500086
0.1500126
0.1500183
0.1500269
0.1500397
0.150059
0.15
0.15
0.15
0.15
0.15
0.15
0.15
0.15
0.15
0.15
0.1500001
0.1500001
0.1500001
0.1500001
0.1500002
0.1500003
0.1500003
0.1500005
0.1500007
0.1500009
0.1500013
0.1500019
0.1500027
0.1500038
0.1500055
0.1500079
0.1500115
0.1500167
0.1500244
0.1500357
0.15
0.15
0.15
0.15
0.15
0.15
0.15
0.15
0.15
0.15
0.1500001
0.1500001
0.1500001
0.1500001
0.1500002
0.1500003
0.1500004
0.1500005
0.1500007
0.150001
0.1500013
0.1500019
0.1500027
0.1500039
0.1500055
0.150008
0.1500115
0.1500168
0.1500245
0.150036
0.15
0.15
0.15
0.15
0.15
0.15
0.15
0.15
0.1500001
0.1500001
0.1500001
0.1500001
0.1500002
0.1500002
0.1500003
0.1500004
0.1500005
0.1500007
0.150001
0.1500015
0.1500021
0.150003
0.1500042
0.1500061
0.1500088
0.1500127
0.1500185
0.1500272
0.1500402
0.1500596
0.15
0.15
0.15
0.15
0.15
0.15
0.15
0.15
0.1500001
0.1500001
0.1500001
0.1500001
0.1500002
0.1500002
0.1500003
0.1500004
0.1500005
0.1500007
0.150001
0.1500015
0.1500021
0.1500029
0.1500042
0.150006
0.1500087
0.1500126
0.1500185
0.1500271
0.15004
0.1500594
0.15
0.15
0.15
0.15
0.15
0.15
0.15
0.15
0.15
0.15
0.1500001
0.1500001
0.1500001
0.1500001
0.1500002
0.1500003
0.1500004
0.1500005
0.1500007
0.150001
0.1500013
0.1500019
0.1500027
0.1500039
0.1500055
0.150008
0.1500115
0.1500167
0.1500244
0.1500359
0.15
0.15
0.15
0.15
0.15
0.15
0.15
0.15
0.15
0.15
0.1500001
0.1500001
0.1500001
0.1500001
0.1500002
0.1500003
0.1500004
0.1500005
0.1500007
0.150001
0.1500013
0.1500019
0.1500027
0.1500039
0.1500055
0.150008
0.1500115
0.1500168
0.1500245
0.1500359
0.15
0.15
0.15
0.15
0.15
0.15
0.15
0.15
0.1500001
0.1500001
0.1500001
0.1500001
0.1500002
0.1500002
0.1500003
0.1500004
0.1500005
0.1500007
0.150001
0.1500015
0.1500021
0.1500029
0.1500042
0.150006
0.1500087
0.1500127
0.1500185
0.1500271
0.15004
0.1500595
0.15
0.15
0.15
0.15
0.15
0.15
0.15
0.15
0.1500001
0.1500001
0.1500001
0.1500001
0.1500002
0.1500002
0.1500003
0.1500004
0.1500005
0.1500007
0.150001
0.1500015
0.1500021
0.1500029
0.1500042
0.150006
0.1500087
0.1500127
0.1500185
0.1500271
0.15004
0.1500594
0.15
0.15
0.15
0.15
0.15
0.15
0.15
0.15
0.15
0.15
0.1500001
0.1500001
0.1500001
0.1500001
0.1500002
0.1500003
0.1500004
0.1500005
0.1500007
0.150001
0.1500013
0.1500019
0.1500027
0.1500039
0.1500055
0.150008
0.1500115
0.1500168
0.1500245
0.1500359
0.15
0.15
0.15
0.15
0.15
0.15
0.15
0.15
0.15
0.15
0.1500001
0.1500001
0.1500001
0.1500001
0.1500002
0.1500003
0.1500004
0.1500005
0.1500007
0.150001
0.1500013
0.1500019
0.1500027
0.1500039
0.1500055
0.150008
0.1500115
0.1500168
0.1500245
0.1500359
0.15
0.15
0.15
0.15
0.15
0.15
0.15
0.15
0.1500001
0.1500001
0.1500001
0.1500001
0.1500002
0.1500002
0.1500003
0.1500004
0.1500005
0.1500007
0.150001
0.1500015
0.1500021
0.1500029
0.1500042
0.150006
0.1500087
0.1500127
0.1500185
0.1500271
0.15004
0.1500594
0.15
0.15
0.15
0.15
0.15
0.15
0.15
0.15
0.1500001
0.1500001
0.1500001
0.1500001
0.1500002
0.1500002
0.1500003
0.1500004
0.1500005
0.1500007
0.150001
0.1500015
0.1500021
0.1500029
0.1500042
0.150006
0.1500087
0.1500127
0.1500185
0.1500272
0.1500401
0.1500595
0.15
0.15
0.15
0.15
0.15
0.15
0.15
0.15
0.15
0.15
0.1500001
0.1500001
0.1500001
0.1500001
0.1500002
0.1500003
0.1500004
0.1500005
0.1500007
0.150001
0.1500013
0.1500019
0.1500027
0.1500039
0.1500055
0.150008
0.1500115
0.1500168
0.1500245
0.1500359
0.15
0.15
0.15
0.15
0.15
0.15
0.15
0.15
0.15
0.15
0.1500001
0.1500001
0.1500001
0.1500001
0.1500002
0.1500003
0.1500004
0.1500005
0.1500007
0.150001
0.1500013
0.1500019
0.1500027
0.1500039
0.1500055
0.150008
0.1500115
0.1500167
0.1500245
0.1500359
0.15
0.15
0.15
0.15
0.15
0.15
0.15
0.15
0.1500001
0.1500001
0.1500001
0.1500001
0.1500002
0.1500002
0.1500003
0.1500004
0.1500005
0.1500007
0.150001
0.1500015
0.1500021
0.1500029
0.1500042
0.150006
0.1500087
0.1500127
0.1500185
0.1500271
0.15004
0.1500594
0.15
0.15
0.15
0.15
0.15
0.15
0.15
0.15
0.1500001
0.1500001
0.1500001
0.1500001
0.1500002
0.1500002
0.1500003
0.1500004
0.1500005
0.1500007
0.150001
0.1500015
0.1500021
0.150003
0.1500042
0.1500061
0.1500088
0.1500127
0.1500186
0.1500273
0.1500402
0.1500597
0.15
0.15
0.15
0.15
0.15
0.15
0.15
0.15
0.15
0.15
0.1500001
0.1500001
0.1500001
0.1500001
0.1500002
0.1500003
0.1500004
0.1500005
0.1500007
0.150001
0.1500013
0.1500019
0.1500027
0.1500039
0.1500055
0.150008
0.1500116
0.1500168
0.1500245
0.150036
0.15
0.15
0.15
0.15
0.15
0.15
0.15
0.15
0.15
0.15
0.1500001
0.1500001
0.1500001
0.1500001
0.1500002
0.1500003
0.1500003
0.1500005
0.1500007
0.1500009
0.1500013
0.1500019
0.1500027
0.1500038
0.1500055
0.1500079
0.1500115
0.1500167
0.1500243
0.1500357
0.15
0.15
0.15
0.15
0.15
0.15
0.15
0.15
0.1500001
0.1500001
0.1500001
0.1500001
0.1500001
0.1500002
0.1500003
0.1500004
0.1500005
0.1500007
0.150001
0.1500014
0.150002
0.1500029
0.1500042
0.150006
0.1500086
0.1500125
0.1500183
0.1500269
0.1500397
0.150059
0.15
0.15
0.15
0.15
0.15
0.15
0.15
0.15
0.1500001
0.1500001
0.1500001
0.1500001
0.1500002
0.1500002
0.1500003
0.1500004
0.1500005
0.1500008
0.1500011
0.1500015
0.1500021
0.150003
0.1500043
0.1500061
0.1500089
0.1500129
0.1500188
0.1500276
0.1500407
0.1500604
0.15
0.15
0.15
0.15
0.15
0.15
0.15
0.15
0.15
0.15
0.1500001
0.1500001
0.1500001
0.1500001
0.1500002
0.1500003
0.1500004
0.1500005
0.1500007
0.150001
0.1500014
0.1500019
0.1500027
0.1500039
0.1500056
0.150008
0.1500116
0.1500169
0.1500247
0.1500362
0.15
0.15
0.15
0.15
0.15
0.15
0.15
0.15
0.15
0.15
0.1500001
0.1500001
0.1500001
0.1500001
0.1500002
0.1500003
0.1500004
0.1500005
0.1500007
0.150001
0.1500014
0.1500019
0.1500027
0.1500039
0.1500056
0.150008
0.1500116
0.1500168
0.1500245
0.1500359
0.15
0.15
0.15
0.15
0.15
0.15
0.15
0.15
0.1500001
0.1500001
0.1500001
0.1500001
0.1500002
0.1500002
0.1500003
0.1500004
0.1500006
0.1500008
0.1500012
0.1500016
0.1500023
0.1500033
0.1500047
0.1500068
0.1500099
0.1500144
0.1500212
0.1500312
0.1500462
0.1500689
0.1500005
0.1500005
0.1500005
0.1500005
0.1500005
0.1500006
0.1500007
0.1500009
0.150001
0.1500013
0.1500016
0.1500021
0.1500027
0.1500035
0.1500046
0.150006
0.1500078
0.1500101
0.1500131
0.1500171
0.1500221
0.1500286
0.1500369
0.1500475
0.1500609
0.1500779
0.1500992
0.1501259
0.1501591
0.1502
0.1500003
0.1500003
0.1500003
0.1500003
0.1500004
0.1500004
0.1500005
0.1500005
0.1500006
0.1500008
0.150001
0.1500012
0.1500016
0.150002
0.1500027
0.1500034
0.1500045
0.1500058
0.1500076
0.1500098
0.1500128
0.1500165
0.1500214
0.1500275
0.1500354
0.1500453
0.1500578
0.1500734
0.1500927
0.1501166
0.1500003
0.1500003
0.1500003
0.1500003
0.1500004
0.1500004
0.1500004
0.1500005
0.1500006
0.1500008
0.150001
0.1500012
0.1500016
0.150002
0.1500026
0.1500034
0.1500044
0.1500058
0.1500075
0.1500098
0.1500127
0.1500165
0.1500214
0.1500276
0.1500355
0.1500455
0.150058
0.1500737
0.1500932
0.1501171
0.1500004
0.1500004
0.1500004
0.1500005
0.1500005
0.1500006
0.1500007
0.1500008
0.150001
0.1500012
0.1500015
0.1500019
0.1500025
0.1500032
0.1500042
0.1500055
0.1500071
0.1500093
0.1500121
0.1500157
0.1500203
0.1500262
0.1500338
0.1500434
0.1500557
0.1500711
0.1500905
0.1501147
0.1501448
0.1501817
0.1500004
0.1500004
0.1500004
0.1500005
0.1500005
0.1500006
0.1500007
0.1500008
0.150001
0.1500012
0.1500015
0.1500019
0.1500025
0.1500032
0.1500042
0.1500054
0.150007
0.1500092
0.1500119
0.1500154
0.15002
0.1500258
0.1500332
0.1500427
0.1500547
0.1500699
0.1500889
0.1501127
0.1501422
0.1501784
0.1500003
0.1500003
0.1500003
0.1500003
0.1500003
0.1500004
0.1500004
0.1500005
0.1500006
0.1500008
0.1500009
0.1500012
0.1500015
0.150002
0.1500026
0.1500034
0.1500044
0.1500057
0.1500074
0.1500097
0.1500126
0.1500163
0.1500211
0.1500272
0.150035
0.1500448
0.1500572
0.1500728
0.150092
0.1501157
0.1500003
0.1500003
0.1500003
0.1500003
0.1500003
0.1500004
0.1500004
0.1500005
0.1500006
0.1500008
0.150001
0.1500012
0.1500016
0.150002
0.1500026
0.1500034
0.1500044
0.1500057
0.1500075
0.1500097
0.1500127
0.1500164
0.1500212
0.1500274
0.1500352
0.1500451
0.1500576
0.1500732
0.1500925
0.1501163
0.1500004
0.1500004
0.1500004
0.1500005
0.1500005
0.1500006
0.1500007
0.1500008
0.150001
0.1500012
0.1500015
0.1500019
0.1500025
0.1500032
0.1500042
0.1500055
0.1500071
0.1500092
0.150012
0.1500156
0.1500202
0.1500261
0.1500336
0.1500431
0.1500553
0.1500706
0.1500898
0.1501138
0.1501435
0.1501801
0.1500004
0.1500004
0.1500004
0.1500005
0.1500005
0.1500006
0.1500007
0.1500008
0.150001
0.1500012
0.1500015
0.1500019
0.1500025
0.1500032
0.1500042
0.1500054
0.1500071
0.1500092
0.150012
0.1500155
0.1500201
0.150026
0.1500334
0.150043
0.1500551
0.1500703
0.1500894
0.1501133
0.1501429
0.1501793
0.1500003
0.1500003
0.1500003
0.1500003
0.1500003
0.1500004
0.1500004
0.1500005
0.1500006
0.1500008
0.1500009
0.1500012
0.1500015
0.150002
0.1500026
0.1500034
0.1500044
0.1500057
0.1500075
0.1500097
0.1500126
0.1500164
0.1500212
0.1500273
0.1500351
0.150045
0.1500575
0.150073
0.1500923
0.1501161
0.1500003
0.1500003
0.1500003
0.1500003
0.1500003
0.1500004
0.1500004
0.1500005
0.1500006
0.1500008
0.150001
0.1500012
0.1500016
0.150002
0.1500026
0.1500034
0.1500044
0.1500057
0.1500075
0.1500097
0.1500126
0.1500164
0.1500212
0.1500274
0.1500352
0.1500451
0.1500576
0.1500732
0.1500925
0.1501162
0.1500004
0.1500004
0.1500004
0.1500005
0.1500005
0.1500006
0.1500007
0.1500008
0.150001
0.1500012
0.1500015
0.1500019
0.1500025
0.1500032
0.1500042
0.1500055
0.1500071
0.1500092
0.150012
0.1500156
0.1500201
0.150026
0.1500335
0.1500431
0.1500552
0.1500705
0.1500897
0.1501136
0.1501433
0.1501798
0.1500004
0.1500004
0.1500004
0.1500005
0.1500005
0.1500006
0.1500007
0.1500008
0.150001
0.1500012
0.1500015
0.1500019
0.1500025
0.1500032
0.1500042
0.1500055
0.1500071
0.1500092
0.150012
0.1500156
0.1500201
0.150026
0.1500335
0.1500431
0.1500552
0.1500704
0.1500896
0.1501136
0.1501432
0.1501797
0.1500003
0.1500003
0.1500003
0.1500003
0.1500003
0.1500004
0.1500004
0.1500005
0.1500006
0.1500008
0.150001
0.1500012
0.1500016
0.150002
0.1500026
0.1500034
0.1500044
0.1500057
0.1500075
0.1500097
0.1500127
0.1500164
0.1500212
0.1500274
0.1500352
0.1500451
0.1500576
0.1500732
0.1500925
0.1501163
0.1500003
0.1500003
0.1500003
0.1500003
0.1500003
0.1500004
0.1500004
0.1500005
0.1500006
0.1500008
0.150001
0.1500012
0.1500016
0.150002
0.1500026
0.1500034
0.1500044
0.1500057
0.1500075
0.1500097
0.1500127
0.1500164
0.1500212
0.1500274
0.1500352
0.1500451
0.1500576
0.1500732
0.1500925
0.1501163
0.1500004
0.1500004
0.1500004
0.1500005
0.1500005
0.1500006
0.1500007
0.1500008
0.150001
0.1500012
0.1500015
0.1500019
0.1500025
0.1500032
0.1500042
0.1500055
0.1500071
0.1500092
0.150012
0.1500156
0.1500201
0.150026
0.1500335
0.1500431
0.1500552
0.1500704
0.1500896
0.1501136
0.1501432
0.1501797
0.1500004
0.1500004
0.1500004
0.1500005
0.1500005
0.1500006
0.1500007
0.1500008
0.150001
0.1500012
0.1500015
0.1500019
0.1500025
0.1500032
0.1500042
0.1500055
0.1500071
0.1500092
0.150012
0.1500156
0.1500201
0.150026
0.1500335
0.1500431
0.1500552
0.1500705
0.1500896
0.1501136
0.1501433
0.1501798
0.1500003
0.1500003
0.1500003
0.1500003
0.1500003
0.1500004
0.1500004
0.1500005
0.1500006
0.1500008
0.150001
0.1500012
0.1500016
0.150002
0.1500026
0.1500034
0.1500044
0.1500057
0.1500075
0.1500097
0.1500126
0.1500164
0.1500212
0.1500274
0.1500352
0.1500451
0.1500576
0.1500731
0.1500925
0.1501162
0.1500003
0.1500003
0.1500003
0.1500003
0.1500003
0.1500004
0.1500004
0.1500005
0.1500006
0.1500008
0.1500009
0.1500012
0.1500015
0.150002
0.1500026
0.1500034
0.1500044
0.1500057
0.1500075
0.1500097
0.1500126
0.1500164
0.1500212
0.1500273
0.1500351
0.150045
0.1500575
0.1500731
0.1500924
0.1501161
0.1500004
0.1500004
0.1500004
0.1500005
0.1500005
0.1500006
0.1500007
0.1500008
0.150001
0.1500012
0.1500015
0.1500019
0.1500025
0.1500032
0.1500042
0.1500054
0.1500071
0.1500092
0.150012
0.1500155
0.1500201
0.150026
0.1500335
0.150043
0.1500551
0.1500703
0.1500895
0.1501134
0.150143
0.1501794
0.1500004
0.1500004
0.1500004
0.1500005
0.1500005
0.1500006
0.1500007
0.1500008
0.150001
0.1500012
0.1500015
0.1500019
0.1500025
0.1500032
0.1500042
0.1500055
0.1500071
0.1500093
0.150012
0.1500156
0.1500202
0.1500261
0.1500336
0.1500432
0.1500553
0.1500706
0.1500899
0.1501139
0.1501436
0.1501802
0.1500003
0.1500003
0.1500003
0.1500003
0.1500003
0.1500004
0.1500004
0.1500005
0.1500006
0.1500008
0.150001
0.1500012
0.1500016
0.150002
0.1500026
0.1500034
0.1500044
0.1500057
0.1500075
0.1500097
0.1500127
0.1500164
0.1500212
0.1500274
0.1500352
0.1500451
0.1500576
0.1500732
0.1500926
0.1501164
0.1500003
0.1500003
0.1500003
0.1500003
0.1500003
0.1500004
0.1500004
0.1500005
0.1500006
0.1500008
0.1500009
0.1500012
0.1500015
0.150002
0.1500026
0.1500034
0.1500044
0.1500057
0.1500074
0.1500097
0.1500126
0.1500163
0.1500211
0.1500272
0.150035
0.1500448
0.1500572
0.1500727
0.150092
0.1501157
0.1500004
0.1500004
0.1500004
0.1500005
0.1500005
0.1500006
0.1500007
0.1500008
0.150001
0.1500012
0.1500015
0.1500019
0.1500025
0.1500032
0.1500042
0.1500054
0.150007
0.1500091
0.1500119
0.1500154
0.15002
0.1500258
0.1500332
0.1500427
0.1500547
0.1500698
0.1500889
0.1501126
0.1501421
0.1501783
0.1500004
0.1500004
0.1500004
0.1500005
0.1500005
0.1500006
0.1500007
0.1500008
0.150001
0.1500012
0.1500015
0.1500019
0.1500025
0.1500032
0.1500042
0.1500055
0.1500071
0.1500093
0.1500121
0.1500156
0.1500203
0.1500262
0.1500338
0.1500434
0.1500556
0.150071
0.1500904
0.1501146
0.1501446
0.1501815
0.1500003
0.1500003
0.1500003
0.1500003
0.1500004
0.1500004
0.1500004
0.1500005
0.1500006
0.1500008
0.150001
0.1500012
0.1500016
0.150002
0.1500026
0.1500034
0.1500044
0.1500058
0.1500075
0.1500098
0.1500127
0.1500165
0.1500213
0.1500275
0.1500354
0.1500454
0.1500579
0.1500736
0.150093
0.1501169
0.1500003
0.1500003
0.1500003
0.1500003
0.1500004
0.1500004
0.1500005
0.1500005
0.1500006
0.1500008
0.150001
0.1500012
0.1500016
0.150002
0.1500026
0.1500034
0.1500045
0.1500058
0.1500076
0.1500098
0.1500127
0.1500165
0.1500213
0.1500274
0.1500353
0.1500451
0.1500576
0.1500731
0.1500925
0.1501162
0.1500005
0.1500005
0.1500005
0.1500005
0.1500005
0.1500006
0.1500007
0.1500009
0.150001
0.1500013
0.1500016
0.1500021
0.1500027
0.1500035
0.1500046
0.1500059
0.1500077
0.1500101
0.1500131
0.150017
0.150022
0.1500285
0.1500368
0.1500473
0.1500607
0.1500776
0.1500989
0.1501255
0.1501586
0.1501993
0.1500023
0.1500023
0.1500023
0.1500024
0.1500026
0.1500028
0.1500031
0.1500036
0.1500042
0.150005
0.1500061
0.1500075
0.1500093
0.1500115
0.1500143
0.1500179
0.1500224
0.1500281
0.1500351
0.1500438
0.1500545
0.1500676
0.1500836
0.150103
0.1501264
0.1501543
0.1501876
0.150227
0.1502731
0.1503267
0.1500015
0.1500015
0.1500016
0.1500016
0.1500016
0.1500018
0.1500019
0.1500022
0.1500025
0.1500029
0.1500035
0.1500043
0.1500053
0.1500065
0.1500081
0.1500102
0.1500128
0.150016
0.15002
0.1500251
0.1500313
0.150039
0.1500485
0.15006
0.150074
0.1500908
0.1501109
0.1501346
0.1501624
0.1501946
0.1500015
0.1500015
0.1500015
0.1500015
0.1500016
0.1500017
0.1500019
0.1500021
0.1500024
0.1500029
0.1500034
0.1500042
0.1500051
0.1500064
0.150008
0.15001
0.1500125
0.1500157
0.1500197
0.1500247
0.1500309
0.1500386
0.150048
0.1500595
0.1500734
0.1500901
0.1501101
0.1501337
0.1501613
0.1501931
0.1500021
0.1500021
0.1500022
0.1500022
0.1500024
0.1500026
0.1500029
0.1500033
0.1500039
0.1500046
0.1500056
0.1500068
0.1500084
0.1500105
0.1500131
0.1500163
0.1500204
0.1500255
0.1500319
0.1500397
0.1500494
0.1500612
0.1500757
0.1500931
0.1501141
0.1501392
0.150169
0.1502041
0.1502451
0.1502926
0.1500021
0.1500021
0.1500021
0.1500022
0.1500023
0.1500025
0.1500028
0.1500032
0.1500038
0.1500045
0.1500055
0.1500067
0.1500083
0.1500103
0.1500129
0.1500161
0.1500201
0.1500251
0.1500314
0.1500391
0.1500486
0.1500603
0.1500744
0.1500916
0.1501122
0.1501369
0.1501662
0.1502007
0.150241
0.1502878
0.1500014
0.1500014
0.1500014
0.1500015
0.1500015
0.1500016
0.1500018
0.150002
0.1500024
0.1500028
0.1500034
0.1500041
0.150005
0.1500062
0.1500078
0.1500098
0.1500123
0.1500154
0.1500193
0.1500242
0.1500303
0.1500379
0.1500471
0.1500584
0.1500721
0.1500886
0.1501083
0.1501316
0.1501588
0.1501903
0.1500015
0.1500014
0.1500015
0.1500015
0.1500015
0.1500017
0.1500018
0.1500021
0.1500024
0.1500028
0.1500034
0.1500041
0.1500051
0.1500063
0.1500078
0.1500098
0.1500123
0.1500155
0.1500194
0.1500244
0.1500305
0.1500381
0.1500474
0.1500588
0.1500725
0.1500891
0.1501089
0.1501323
0.1501596
0.1501912
0.1500021
0.1500021
0.1500021
0.1500022
0.1500023
0.1500026
0.1500029
0.1500033
0.1500038
0.1500046
0.1500055
0.1500068
0.1500084
0.1500104
0.150013
0.1500162
0.1500203
0.1500253
0.1500316
0.1500394
0.150049
0.1500608
0.1500751
0.1500924
0.1501132
0.1501381
0.1501676
0.1502024
0.1502431
0.1502902
0.1500021
0.1500021
0.1500021
0.1500022
0.1500023
0.1500025
0.1500028
0.1500033
0.1500038
0.1500046
0.1500055
0.1500068
0.1500083
0.1500104
0.1500129
0.1500161
0.1500202
0.1500253
0.1500315
0.1500393
0.1500489
0.1500606
0.1500748
0.150092
0.1501128
0.1501375
0.150167
0.1502016
0.1502421
0.150289
0.1500014
0.1500014
0.1500015
0.1500015
0.1500015
0.1500017
0.1500018
0.150002
0.1500024
0.1500028
0.1500034
0.1500041
0.1500051
0.1500063
0.1500078
0.1500098
0.1500123
0.1500155
0.1500194
0.1500243
0.1500305
0.150038
0.1500473
0.1500586
0.1500724
0.1500889
0.1501086
0.150132
0.1501593
0.1501908
0.1500015
0.1500014
0.1500015
0.1500015
0.1500015
0.1500017
0.1500018
0.1500021
0.1500024
0.1500028
0.1500034
0.1500041
0.1500051
0.1500063
0.1500078
0.1500098
0.1500123
0.1500155
0.1500194
0.1500244
0.1500305
0.1500381
0.1500474
0.1500587
0.1500725
0.1500891
0.1501088
0.1501322
0.1501595
0.1501911
0.1500021
0.1500021
0.1500021
0.1500022
0.1500023
0.1500025
0.1500028
0.1500033
0.1500038
0.1500046
0.1500055
0.1500068
0.1500084
0.1500104
0.150013
0.1500162
0.1500202
0.1500253
0.1500316
0.1500394
0.150049
0.1500607
0.150075
0.1500923
0.150113
0.1501379
0.1501673
0.1502021
0.1502426
0.1502896
0.1500021
0.1500021
0.1500021
0.1500022
0.1500023
0.1500025
0.1500028
0.1500033
0.1500038
0.1500046
0.1500055
0.1500068
0.1500084
0.1500104
0.1500129
0.1500162
0.1500202
0.1500253
0.1500316
0.1500394
0.1500489
0.1500607
0.1500749
0.1500922
0.150113
0.1501378
0.1501673
0.150202
0.1502425
0.1502895
0.1500015
0.1500014
0.1500015
0.1500015
0.1500015
0.1500017
0.1500018
0.1500021
0.1500024
0.1500028
0.1500034
0.1500041
0.1500051
0.1500063
0.1500078
0.1500098
0.1500123
0.1500155
0.1500194
0.1500244
0.1500305
0.1500381
0.1500474
0.1500587
0.1500725
0.1500891
0.1501088
0.1501322
0.1501595
0.1501911
0.1500015
0.1500014
0.1500015
0.1500015
0.1500015
0.1500017
0.1500018
0.1500021
0.1500024
0.1500028
0.1500034
0.1500041
0.1500051
0.1500063
0.1500078
0.1500098
0.1500123
0.1500155
0.1500194
0.1500244
0.1500305
0.1500381
0.1500474
0.1500587
0.1500725
0.1500891
0.1501088
0.1501322
0.1501595
0.1501911
0.1500021
0.1500021
0.1500021
0.1500022
0.1500023
0.1500025
0.1500028
0.1500033
0.1500038
0.1500046
0.1500055
0.1500068
0.1500084
0.1500104
0.1500129
0.1500162
0.1500202
0.1500253
0.1500316
0.1500394
0.1500489
0.1500607
0.1500749
0.1500922
0.150113
0.1501378
0.1501673
0.150202
0.1502425
0.1502895
0.1500021
0.1500021
0.1500021
0.1500022
0.1500023
0.1500025
0.1500028
0.1500033
0.1500038
0.1500046
0.1500055
0.1500068
0.1500084
0.1500104
0.150013
0.1500162
0.1500202
0.1500253
0.1500316
0.1500394
0.150049
0.1500607
0.150075
0.1500922
0.150113
0.1501379
0.1501673
0.150202
0.1502426
0.1502896
0.1500015
0.1500014
0.1500015
0.1500015
0.1500015
0.1500017
0.1500018
0.1500021
0.1500024
0.1500028
0.1500034
0.1500041
0.1500051
0.1500063
0.1500078
0.1500098
0.1500123
0.1500155
0.1500194
0.1500244
0.1500305
0.1500381
0.1500474
0.1500587
0.1500725
0.150089
0.1501088
0.1501322
0.1501595
0.150191
0.1500014
0.1500014
0.1500015
0.1500015
0.1500015
0.1500017
0.1500018
0.1500021
0.1500024
0.1500028
0.1500034
0.1500041
0.1500051
0.1500063
0.1500078
0.1500098
0.1500123
0.1500155
0.1500194
0.1500243
0.1500305
0.150038
0.1500473
0.1500586
0.1500724
0.1500889
0.1501087
0.150132
0.1501593
0.1501908
0.1500021
0.1500021
0.1500021
0.1500022
0.1500023
0.1500025
0.1500028
0.1500033
0.1500038
0.1500046
0.1500055
0.1500068
0.1500083
0.1500104
0.1500129
0.1500162
0.1500202
0.1500253
0.1500315
0.1500393
0.1500489
0.1500606
0.1500748
0.1500921
0.1501128
0.1501376
0.150167
0.1502017
0.1502421
0.1502891
0.1500021
0.1500021
0.1500021
0.1500022
0.1500023
0.1500026
0.1500029
0.1500033
0.1500038
0.1500046
0.1500055
0.1500068
0.1500084
0.1500104
0.150013
0.1500162
0.1500203
0.1500254
0.1500317
0.1500395
0.1500491
0.1500608
0.1500751
0.1500925
0.1501133
0.1501382
0.1501677
0.1502025
0.1502432
0.1502903
0.1500015
0.1500014
0.1500015
0.1500015
0.1500015
0.1500017
0.1500018
0.1500021
0.1500024
0.1500028
0.1500034
0.1500041
0.1500051
0.1500063
0.1500079
0.1500098
0.1500123
0.1500155
0.1500195
0.1500244
0.1500305
0.1500381
0.1500474
0.1500588
0.1500726
0.1500891
0.1501089
0.1501323
0.1501597
0.1501913
0.1500014
0.1500014
0.1500014
0.1500015
0.1500015
0.1500016
0.1500018
0.150002
0.1500024
0.1500028
0.1500034
0.1500041
0.150005
0.1500062
0.1500078
0.1500098
0.1500123
0.1500154
0.1500193
0.1500242
0.1500303
0.1500378
0.1500471
0.1500584
0.1500721
0.1500886
0.1501082
0.1501315
0.1501588
0.1501903
0.1500021
0.1500021
0.1500021
0.1500022
0.1500023
0.1500025
0.1500028
0.1500032
0.1500038
0.1500045
0.1500055
0.1500067
0.1500083
0.1500103
0.1500129
0.1500161
0.1500201
0.1500251
0.1500314
0.1500391
0.1500486
0.1500602
0.1500744
0.1500915
0.1501122
0.1501368
0.1501661
0.1502006
0.1502409
0.1502876
0.1500021
0.1500021
0.1500022
0.1500022
0.1500024
0.1500026
0.1500029
0.1500033
0.1500039
0.1500046
0.1500056
0.1500068
0.1500084
0.1500105
0.150013
0.1500163
0.1500204
0.1500255
0.1500318
0.1500397
0.1500494
0.1500612
0.1500756
0.150093
0.150114
0.1501391
0.1501689
0.150204
0.150245
0.1502924
0.1500015
0.1500015
0.1500015
0.1500015
0.1500016
0.1500017
0.1500019
0.1500021
0.1500024
0.1500029
0.1500034
0.1500042
0.1500051
0.1500064
0.150008
0.15001
0.1500125
0.1500157
0.1500197
0.1500247
0.1500309
0.1500385
0.1500479
0.1500594
0.1500733
0.15009
0.1501099
0.1501335
0.150161
0.1501929
0.1500015
0.1500015
0.1500015
0.1500016
0.1500016
0.1500018
0.1500019
0.1500022
0.1500025
0.1500029
0.1500035
0.1500043
0.1500053
0.1500065
0.1500081
0.1500102
0.1500127
0.1500159
0.15002
0.150025
0.1500312
0.1500389
0.1500484
0.1500599
0.1500738
0.1500906
0.1501106
0.1501343
0.1501621
0.1501942
0.1500023
0.1500023
0.1500023
0.1500024
0.1500026
0.1500028
0.1500031
0.1500036
0.1500042
0.150005
0.1500061
0.1500075
0.1500092
0.1500115
0.1500143
0.1500179
0.1500224
0.150028
0.150035
0.1500437
0.1500543
0.1500674
0.1500834
0.1501027
0.150126
0.150154
0.1501872
0.1502264
0.1502724
0.150326
0.1500071
0.1500071
0.1500073
0.1500075
0.1500079
0.1500085
0.1500093
0.1500104
0.1500119
0.1500138
0.1500162
0.1500192
0.150023
0.1500276
0.1500333
0.1500403
0.1500487
0.1500589
0.1500712
0.1500859
0.1501034
0.1501241
0.1501484
0.1501769
0.1502101
0.1502486
0.150293
0.1503437
0.1504016
0.1504671
0.1500047
0.1500047
0.1500047
0.1500048
0.1500049
0.1500052
0.1500056
0.1500061
0.1500069
0.1500079
0.1500092
0.1500108
0.1500129
0.1500155
0.1500187
0.1500227
0.1500276
0.1500335
0.1500407
0.1500494
0.1500599
0.1500724
0.1500872
0.1501047
0.1501252
0.1501491
0.1501765
0.1502077
0.150243
0.1502823
0.1500045
0.1500045
0.1500045
0.1500046
0.1500047
0.150005
0.1500053
0.1500059
0.1500066
0.1500076
0.1500088
0.1500104
0.1500125
0.150015
0.1500181
0.150022
0.1500267
0.1500325
0.1500396
0.1500481
0.1500584
0.1500706
0.1500852
0.1501024
0.1501225
0.1501458
0.1501726
0.1502032
0.1502377
0.1502762
0.1500065
0.1500065
0.1500066
0.1500068
0.1500072
0.1500077
0.1500084
0.1500094
0.1500107
0.1500124
0.1500146
0.1500173
0.1500206
0.1500248
0.1500299
0.1500361
0.1500436
0.1500527
0.1500637
0.1500767
0.1500922
0.1501105
0.1501321
0.1501572
0.1501864
0.1502201
0.1502588
0.1503028
0.1503526
0.1504087
0.1500063
0.1500063
0.1500064
0.1500066
0.150007
0.1500075
0.1500082
0.1500092
0.1500105
0.1500121
0.1500142
0.1500169
0.1500202
0.1500242
0.1500292
0.1500353
0.1500427
0.1500516
0.1500623
0.1500751
0.1500903
0.1501082
0.1501293
0.1501539
0.1501825
0.1502155
0.1502534
0.1502966
0.1503455
0.1504006
0.1500043
0.1500043
0.1500043
0.1500044
0.1500045
0.1500048
0.1500051
0.1500057
0.1500064
0.1500073
0.1500086
0.1500101
0.1500121
0.1500146
0.1500176
0.1500214
0.150026
0.1500317
0.1500386
0.1500469
0.1500569
0.1500689
0.1500831
0.1501
0.1501197
0.1501425
0.1501689
0.150199
0.1502329
0.1502708
0.1500043
0.1500043
0.1500043
0.1500044
0.1500046
0.1500048
0.1500052
0.1500057
0.1500064
0.1500074
0.1500086
0.1500102
0.1500122
0.1500146
0.1500177
0.1500215
0.1500262
0.1500319
0.1500388
0.1500472
0.1500573
0.1500693
0.1500837
0.1501006
0.1501204
0.1501434
0.1501699
0.1502001
0.1502342
0.1502723
0.1500063
0.1500064
0.1500065
0.1500067
0.150007
0.1500075
0.1500083
0.1500093
0.1500106
0.1500122
0.1500144
0.150017
0.1500203
0.1500244
0.1500295
0.1500356
0.1500431
0.1500521
0.1500629
0.1500758
0.1500911
0.1501092
0.1501305
0.1501554
0.1501842
0.1502176
0.1502558
0.1502994
0.1503488
0.1504044
0.1500063
0.1500064
0.1500065
0.1500067
0.150007
0.1500075
0.1500082
0.1500092
0.1500105
0.1500122
0.1500143
0.150017
0.1500203
0.1500243
0.1500294
0.1500355
0.1500429
0.1500518
0.1500626
0.1500754
0.1500907
0.1501087
0.1501299
0.1501547
0.1501834
0.1502166
0.1502547
0.1502981
0.1503472
0.1504026
0.1500043
0.1500043
0.1500043
0.1500044
0.1500045
0.1500048
0.1500052
0.1500057
0.1500064
0.1500074
0.1500086
0.1500102
0.1500121
0.1500146
0.1500177
0.1500215
0.1500261
0.1500318
0.1500387
0.1500471
0.1500571
0.1500692
0.1500835
0.1501004
0.1501201
0.1501431
0.1501695
0.1501997
0.1502337
0.1502717
0.1500043
0.1500043
0.1500043
0.1500044
0.1500046
0.1500048
0.1500052
0.1500057
0.1500064
0.1500074
0.1500086
0.1500102
0.1500122
0.1500146
0.1500177
0.1500215
0.1500262
0.1500319
0.1500388
0.1500472
0.1500572
0.1500693
0.1500836
0.1501005
0.1501203
0.1501433
0.1501698
0.1502
0.1502341
0.1502721
0.1500063
0.1500064
0.1500065
0.1500067
0.150007
0.1500075
0.1500083
0.1500092
0.1500105
0.1500122
0.1500143
0.150017
0.1500203
0.1500244
0.1500294
0.1500356
0.150043
0.150052
0.1500628
0.1500756
0.1500909
0.150109
0.1501303
0.1501551
0.1501839
0.1502172
0.1502553
0.1502989
0.1503482
0.1504036
0.1500063
0.1500064
0.1500065
0.1500067
0.150007
0.1500075
0.1500083
0.1500092
0.1500105
0.1500122
0.1500143
0.150017
0.1500203
0.1500244
0.1500294
0.1500355
0.150043
0.1500519
0.1500627
0.1500756
0.1500909
0.150109
0.1501302
0.150155
0.1501838
0.1502171
0.1502553
0.1502988
0.150348
0.1504035
0.1500043
0.1500043
0.1500043
0.1500044
0.1500046
0.1500048
0.1500052
0.1500057
0.1500064
0.1500074
0.1500086
0.1500102
0.1500122
0.1500146
0.1500177
0.1500215
0.1500262
0.1500319
0.1500388
0.1500472
0.1500572
0.1500693
0.1500836
0.1501005
0.1501203
0.1501433
0.1501698
0.1502
0.1502341
0.1502721
0.1500043
0.1500043
0.1500043
0.1500044
0.1500046
0.1500048
0.1500052
0.1500057
0.1500064
0.1500074
0.1500086
0.1500102
0.1500122
0.1500146
0.1500177
0.1500215
0.1500262
0.1500319
0.1500388
0.1500472
0.1500572
0.1500693
0.1500836
0.1501005
0.1501203
0.1501433
0.1501698
0.1502
0.1502341
0.1502721
0.1500063
0.1500064
0.1500065
0.1500067
0.150007
0.1500075
0.1500083
0.1500092
0.1500105
0.1500122
0.1500143
0.150017
0.1500203
0.1500244
0.1500294
0.1500355
0.150043
0.1500519
0.1500627
0.1500756
0.1500909
0.150109
0.1501302
0.150155
0.1501838
0.1502171
0.1502552
0.1502987
0.150348
0.1504035
0.1500063
0.1500064
0.1500065
0.1500067
0.150007
0.1500075
0.1500083
0.1500092
0.1500105
0.1500122
0.1500143
0.150017
0.1500203
0.1500244
0.1500294
0.1500356
0.150043
0.150052
0.1500628
0.1500756
0.1500909
0.150109
0.1501303
0.1501551
0.1501839
0.1502172
0.1502554
0.1502989
0.1503482
0.1504037
0.1500043
0.1500043
0.1500043
0.1500044
0.1500046
0.1500048
0.1500052
0.1500057
0.1500064
0.1500074
0.1500086
0.1500102
0.1500122
0.1500146
0.1500177
0.1500215
0.1500262
0.1500319
0.1500388
0.1500472
0.1500572
0.1500693
0.1500836
0.1501005
0.1501203
0.1501433
0.1501698
0.1502
0.1502341
0.1502721
0.1500043
0.1500043
0.1500043
0.1500044
0.1500045