/*--------------------------------*- C++ -*----------------------------------*\
| =========                 |                                                 |
| \\      /  F ield         | OpenFOAM: The Open Source CFD Toolbox           |
|  \\    /   O peration     | Version:  4.0                                   |
|   \\  /    A nd           | Web:      www.OpenFOAM.org                      |
|    \\/     M anipulation  |                                                 |
\*---------------------------------------------------------------------------*/
FoamFile
{
    version     2.0;
    format      ascii;
    class       volScalarField;
    location    "120/air";
    object      YO2air;
}
// * * * * * * * * * * * * * * * * * * * * * * * * * * * * * * * * * * * * * //

dimensions      [0 0 0 0 0 0 0];

internalField   nonuniform List<scalar> 
39776
(
0.2
0.2
0.2
0.2
0.2
0.2
0.2
0.2
0.2
0.2
0.2
0.1999999
0.1999999
0.1999999
0.1999998
0.1999998
0.1999997
0.1999996
0.1999994
0.1999991
0.1999987
0.199998
0.1999971
0.1999957
0.1999935
0.1999902
0.1999852
0.1999774
0.1999653
0.1999464
0.2
0.2
0.2
0.2
0.2
0.2
0.2
0.2
0.2
0.2
0.2
0.2
0.2
0.1999999
0.1999999
0.1999999
0.1999998
0.1999997
0.1999996
0.1999995
0.1999992
0.1999989
0.1999984
0.1999976
0.1999965
0.1999948
0.1999922
0.1999883
0.1999823
0.199973
0.2
0.2
0.2
0.2
0.2
0.2
0.2
0.2
0.2
0.2
0.2
0.2
0.2
0.1999999
0.1999999
0.1999999
0.1999998
0.1999997
0.1999996
0.1999995
0.1999992
0.1999989
0.1999984
0.1999976
0.1999964
0.1999947
0.1999921
0.1999881
0.1999819
0.1999725
0.2
0.2
0.2
0.2
0.2
0.2
0.2
0.2
0.2
0.2
0.2
0.1999999
0.1999999
0.1999999
0.1999999
0.1999998
0.1999997
0.1999996
0.1999994
0.1999992
0.1999988
0.1999982
0.1999973
0.199996
0.1999941
0.1999911
0.1999866
0.1999797
0.199969
0.1999522
0.2
0.2
0.2
0.2
0.2
0.2
0.2
0.2
0.2
0.2
0.2
0.1999999
0.1999999
0.1999999
0.1999999
0.1999998
0.1999997
0.1999996
0.1999994
0.1999992
0.1999988
0.1999982
0.1999974
0.1999962
0.1999943
0.1999914
0.199987
0.1999803
0.1999698
0.1999535
0.2
0.2
0.2
0.2
0.2
0.2
0.2
0.2
0.2
0.2
0.2
0.2
0.2
0.1999999
0.1999999
0.1999999
0.1999998
0.1999998
0.1999996
0.1999995
0.1999993
0.1999989
0.1999984
0.1999976
0.1999965
0.1999948
0.1999922
0.1999882
0.1999822
0.1999729
0.2
0.2
0.2
0.2
0.2
0.2
0.2
0.2
0.2
0.2
0.2
0.2
0.2
0.1999999
0.1999999
0.1999999
0.1999998
0.1999997
0.1999996
0.1999995
0.1999992
0.1999989
0.1999984
0.1999976
0.1999965
0.1999947
0.1999921
0.1999881
0.199982
0.1999727
0.2
0.2
0.2
0.2
0.2
0.2
0.2
0.2
0.2
0.2
0.2
0.1999999
0.1999999
0.1999999
0.1999999
0.1999998
0.1999997
0.1999996
0.1999994
0.1999992
0.1999988
0.1999982
0.1999974
0.1999961
0.1999942
0.1999913
0.1999868
0.19998
0.1999694
0.1999529
0.2
0.2
0.2
0.2
0.2
0.2
0.2
0.2
0.2
0.2
0.2
0.1999999
0.1999999
0.1999999
0.1999999
0.1999998
0.1999997
0.1999996
0.1999994
0.1999992
0.1999988
0.1999982
0.1999974
0.1999961
0.1999942
0.1999913
0.1999869
0.1999801
0.1999696
0.1999532
0.2
0.2
0.2
0.2
0.2
0.2
0.2
0.2
0.2
0.2
0.2
0.2
0.2
0.1999999
0.1999999
0.1999999
0.1999998
0.1999997
0.1999996
0.1999995
0.1999992
0.1999989
0.1999984
0.1999976
0.1999965
0.1999948
0.1999921
0.1999882
0.1999821
0.1999728
0.2
0.2
0.2
0.2
0.2
0.2
0.2
0.2
0.2
0.2
0.2
0.2
0.2
0.1999999
0.1999999
0.1999999
0.1999998
0.1999997
0.1999996
0.1999995
0.1999992
0.1999989
0.1999984
0.1999976
0.1999965
0.1999947
0.1999921
0.1999882
0.1999821
0.1999727
0.2
0.2
0.2
0.2
0.2
0.2
0.2
0.2
0.2
0.2
0.2
0.1999999
0.1999999
0.1999999
0.1999999
0.1999998
0.1999997
0.1999996
0.1999994
0.1999992
0.1999988
0.1999982
0.1999974
0.1999961
0.1999942
0.1999913
0.1999869
0.1999801
0.1999695
0.1999531
0.2
0.2
0.2
0.2
0.2
0.2
0.2
0.2
0.2
0.2
0.2
0.1999999
0.1999999
0.1999999
0.1999999
0.1999998
0.1999997
0.1999996
0.1999994
0.1999992
0.1999988
0.1999982
0.1999974
0.1999961
0.1999942
0.1999913
0.1999869
0.1999801
0.1999696
0.1999531
0.2
0.2
0.2
0.2
0.2
0.2
0.2
0.2
0.2
0.2
0.2
0.2
0.2
0.1999999
0.1999999
0.1999999
0.1999998
0.1999997
0.1999996
0.1999995
0.1999992
0.1999989
0.1999984
0.1999976
0.1999965
0.1999947
0.1999921
0.1999882
0.1999821
0.1999727
0.2
0.2
0.2
0.2
0.2
0.2
0.2
0.2
0.2
0.2
0.2
0.2
0.2
0.1999999
0.1999999
0.1999999
0.1999998
0.1999997
0.1999996
0.1999995
0.1999992
0.1999989
0.1999984
0.1999976
0.1999965
0.1999947
0.1999921
0.1999882
0.1999821
0.1999727
0.2
0.2
0.2
0.2
0.2
0.2
0.2
0.2
0.2
0.2
0.2
0.1999999
0.1999999
0.1999999
0.1999999
0.1999998
0.1999997
0.1999996
0.1999994
0.1999992
0.1999988
0.1999982
0.1999974
0.1999961
0.1999942
0.1999913
0.1999869
0.1999801
0.1999695
0.1999531
0.2
0.2
0.2
0.2
0.2
0.2
0.2
0.2
0.2
0.2
0.2
0.1999999
0.1999999
0.1999999
0.1999999
0.1999998
0.1999997
0.1999996
0.1999994
0.1999992
0.1999988
0.1999982
0.1999974
0.1999961
0.1999942
0.1999913
0.1999869
0.1999801
0.1999695
0.1999531
0.2
0.2
0.2
0.2
0.2
0.2
0.2
0.2
0.2
0.2
0.2
0.2
0.2
0.1999999
0.1999999
0.1999999
0.1999998
0.1999997
0.1999996
0.1999995
0.1999992
0.1999989
0.1999984
0.1999976
0.1999965
0.1999947
0.1999921
0.1999881
0.1999821
0.1999727
0.2
0.2
0.2
0.2
0.2
0.2
0.2
0.2
0.2
0.2
0.2
0.2
0.2
0.1999999
0.1999999
0.1999999
0.1999998
0.1999997
0.1999996
0.1999995
0.1999992
0.1999989
0.1999984
0.1999976
0.1999965
0.1999948
0.1999921
0.1999882
0.1999821
0.1999727
0.2
0.2
0.2
0.2
0.2
0.2
0.2
0.2
0.2
0.2
0.2
0.1999999
0.1999999
0.1999999
0.1999999
0.1999998
0.1999997
0.1999996
0.1999994
0.1999992
0.1999988
0.1999982
0.1999974
0.1999961
0.1999942
0.1999913
0.1999869
0.1999801
0.1999696
0.1999532
0.2
0.2
0.2
0.2
0.2
0.2
0.2
0.2
0.2
0.2
0.2
0.1999999
0.1999999
0.1999999
0.1999999
0.1999998
0.1999997
0.1999996
0.1999994
0.1999992
0.1999988
0.1999982
0.1999974
0.1999961
0.1999942
0.1999913
0.1999868
0.19998
0.1999694
0.1999529
0.2
0.2
0.2
0.2
0.2
0.2
0.2
0.2
0.2
0.2
0.2
0.2
0.2
0.1999999
0.1999999
0.1999999
0.1999998
0.1999997
0.1999996
0.1999995
0.1999992
0.1999989
0.1999984
0.1999976
0.1999965
0.1999947
0.1999921
0.1999881
0.199982
0.1999726
0.2
0.2
0.2
0.2
0.2
0.2
0.2
0.2
0.2
0.2
0.2
0.2
0.2
0.1999999
0.1999999
0.1999999
0.1999998
0.1999998
0.1999996
0.1999995
0.1999993
0.1999989
0.1999984
0.1999976
0.1999965
0.1999948
0.1999922
0.1999882
0.1999822
0.1999729
0.2
0.2
0.2
0.2
0.2
0.2
0.2
0.2
0.2
0.2
0.2
0.1999999
0.1999999
0.1999999
0.1999999
0.1999998
0.1999997
0.1999996
0.1999994
0.1999992
0.1999988
0.1999982
0.1999974
0.1999962
0.1999943
0.1999914
0.199987
0.1999803
0.1999699
0.1999536
0.2
0.2
0.2
0.2
0.2
0.2
0.2
0.2
0.2
0.2
0.2
0.1999999
0.1999999
0.1999999
0.1999999
0.1999998
0.1999997
0.1999996
0.1999994
0.1999992
0.1999988
0.1999982
0.1999973
0.199996
0.1999941
0.1999912
0.1999867
0.1999797
0.199969
0.1999523
0.2
0.2
0.2
0.2
0.2
0.2
0.2
0.2
0.2
0.2
0.2
0.2
0.2
0.1999999
0.1999999
0.1999999
0.1999998
0.1999997
0.1999996
0.1999995
0.1999992
0.1999989
0.1999984
0.1999976
0.1999965
0.1999947
0.1999921
0.1999881
0.199982
0.1999726
0.2
0.2
0.2
0.2
0.2
0.2
0.2
0.2
0.2
0.2
0.2
0.2
0.2
0.1999999
0.1999999
0.1999999
0.1999998
0.1999997
0.1999996
0.1999995
0.1999992
0.1999989
0.1999984
0.1999976
0.1999965
0.1999948
0.1999922
0.1999883
0.1999824
0.1999732
0.2
0.2
0.2
0.2
0.2
0.2
0.2
0.2
0.2
0.2
0.2
0.1999999
0.1999999
0.1999999
0.1999998
0.1999998
0.1999997
0.1999996
0.1999994
0.1999991
0.1999987
0.199998
0.1999971
0.1999957
0.1999936
0.1999903
0.1999853
0.1999776
0.1999655
0.1999467
0.1999998
0.1999998
0.1999998
0.1999998
0.1999997
0.1999997
0.1999997
0.1999996
0.1999995
0.1999993
0.1999991
0.1999988
0.1999985
0.199998
0.1999973
0.1999964
0.1999951
0.1999935
0.1999914
0.1999885
0.1999847
0.1999797
0.1999732
0.1999647
0.1999536
0.1999393
0.1999208
0.1998972
0.1998672
0.1998293
0.1999999
0.1999999
0.1999999
0.1999999
0.1999998
0.1999998
0.1999998
0.1999998
0.1999997
0.1999996
0.1999995
0.1999994
0.1999992
0.1999989
0.1999985
0.199998
0.1999973
0.1999965
0.1999953
0.1999937
0.1999916
0.1999888
0.1999851
0.1999803
0.199974
0.1999658
0.1999552
0.1999416
0.1999242
0.1999022
0.1999999
0.1999999
0.1999999
0.1999999
0.1999998
0.1999998
0.1999998
0.1999998
0.1999997
0.1999996
0.1999995
0.1999994
0.1999992
0.1999989
0.1999985
0.199998
0.1999973
0.1999964
0.1999952
0.1999936
0.1999914
0.1999886
0.1999848
0.1999799
0.1999735
0.1999651
0.1999543
0.1999404
0.1999227
0.1999004
0.1999998
0.1999998
0.1999998
0.1999998
0.1999998
0.1999997
0.1999997
0.1999996
0.1999995
0.1999994
0.1999992
0.1999989
0.1999986
0.1999981
0.1999974
0.1999966
0.1999954
0.1999939
0.1999919
0.1999892
0.1999856
0.1999809
0.1999748
0.1999669
0.1999565
0.1999432
0.199926
0.199904
0.199876
0.199841
0.1999998
0.1999998
0.1999998
0.1999998
0.1999998
0.1999997
0.1999997
0.1999996
0.1999995
0.1999994
0.1999992
0.1999989
0.1999986
0.1999981
0.1999975
0.1999966
0.1999955
0.199994
0.199992
0.1999893
0.1999859
0.1999813
0.1999753
0.1999675
0.1999573
0.1999442
0.1999274
0.1999059
0.1998785
0.1998442
0.1999999
0.1999999
0.1999999
0.1999999
0.1999998
0.1999998
0.1999998
0.1999998
0.1999997
0.1999996
0.1999995
0.1999994
0.1999992
0.1999989
0.1999985
0.199998
0.1999974
0.1999965
0.1999953
0.1999937
0.1999915
0.1999887
0.199985
0.1999801
0.1999738
0.1999655
0.1999548
0.1999411
0.1999235
0.1999014
0.1999999
0.1999999
0.1999999
0.1999999
0.1999998
0.1999998
0.1999998
0.1999998
0.1999997
0.1999996
0.1999995
0.1999994
0.1999992
0.1999989
0.1999985
0.199998
0.1999973
0.1999964
0.1999952
0.1999936
0.1999915
0.1999886
0.1999849
0.19998
0.1999736
0.1999653
0.1999545
0.1999407
0.1999231
0.1999009
0.1999998
0.1999998
0.1999998
0.1999998
0.1999998
0.1999997
0.1999997
0.1999996
0.1999995
0.1999994
0.1999992
0.1999989
0.1999986
0.1999981
0.1999974
0.1999966
0.1999954
0.1999939
0.1999919
0.1999892
0.1999857
0.1999811
0.199975
0.1999671
0.1999568
0.1999436
0.1999266
0.1999048
0.1998772
0.1998425
0.1999998
0.1999998
0.1999998
0.1999998
0.1999998
0.1999997
0.1999997
0.1999996
0.1999995
0.1999994
0.1999992
0.1999989
0.1999986
0.1999981
0.1999975
0.1999966
0.1999955
0.1999939
0.1999919
0.1999893
0.1999858
0.1999811
0.1999751
0.1999673
0.199957
0.1999439
0.1999269
0.1999052
0.1998778
0.1998432
0.1999999
0.1999999
0.1999999
0.1999999
0.1999998
0.1999998
0.1999998
0.1999998
0.1999997
0.1999996
0.1999995
0.1999994
0.1999992
0.1999989
0.1999985
0.199998
0.1999973
0.1999964
0.1999952
0.1999936
0.1999915
0.1999887
0.1999849
0.19998
0.1999737
0.1999653
0.1999546
0.1999408
0.1999232
0.1999011
0.1999999
0.1999999
0.1999999
0.1999999
0.1999998
0.1999998
0.1999998
0.1999998
0.1999997
0.1999996
0.1999995
0.1999994
0.1999992
0.1999989
0.1999985
0.199998
0.1999973
0.1999964
0.1999952
0.1999936
0.1999915
0.1999886
0.1999849
0.19998
0.1999736
0.1999653
0.1999545
0.1999407
0.1999231
0.1999009
0.1999998
0.1999998
0.1999998
0.1999998
0.1999998
0.1999997
0.1999997
0.1999996
0.1999995
0.1999994
0.1999992
0.1999989
0.1999986
0.1999981
0.1999974
0.1999966
0.1999954
0.1999939
0.1999919
0.1999892
0.1999857
0.1999811
0.199975
0.1999672
0.1999569
0.1999437
0.1999267
0.199905
0.1998774
0.1998428
0.1999998
0.1999998
0.1999998
0.1999998
0.1999998
0.1999997
0.1999997
0.1999996
0.1999995
0.1999994
0.1999992
0.1999989
0.1999986
0.1999981
0.1999974
0.1999966
0.1999954
0.1999939
0.1999919
0.1999892
0.1999857
0.1999811
0.1999751
0.1999672
0.1999569
0.1999437
0.1999267
0.199905
0.1998775
0.1998428
0.1999999
0.1999999
0.1999999
0.1999999
0.1999998
0.1999998
0.1999998
0.1999998
0.1999997
0.1999996
0.1999995
0.1999994
0.1999992
0.1999989
0.1999985
0.199998
0.1999973
0.1999964
0.1999952
0.1999936
0.1999915
0.1999886
0.1999849
0.19998
0.1999736
0.1999653
0.1999545
0.1999407
0.1999231
0.1999009
0.1999999
0.1999999
0.1999999
0.1999999
0.1999998
0.1999998
0.1999998
0.1999998
0.1999997
0.1999996
0.1999995
0.1999994
0.1999992
0.1999989
0.1999985
0.199998
0.1999973
0.1999964
0.1999952
0.1999936
0.1999915
0.1999886
0.1999849
0.19998
0.1999736
0.1999653
0.1999545
0.1999407
0.1999231
0.1999009
0.1999998
0.1999998
0.1999998
0.1999998
0.1999998
0.1999997
0.1999997
0.1999996
0.1999995
0.1999994
0.1999992
0.1999989
0.1999986
0.1999981
0.1999974
0.1999966
0.1999954
0.1999939
0.1999919
0.1999892
0.1999857
0.1999811
0.1999751
0.1999672
0.1999569
0.1999437
0.1999267
0.199905
0.1998775
0.1998428
0.1999998
0.1999998
0.1999998
0.1999998
0.1999998
0.1999997
0.1999997
0.1999996
0.1999995
0.1999994
0.1999992
0.1999989
0.1999986
0.1999981
0.1999974
0.1999966
0.1999954
0.1999939
0.1999919
0.1999892
0.1999857
0.1999811
0.199975
0.1999672
0.1999569
0.1999437
0.1999267
0.199905
0.1998774
0.1998428
0.1999999
0.1999999
0.1999999
0.1999999
0.1999998
0.1999998
0.1999998
0.1999998
0.1999997
0.1999996
0.1999995
0.1999994
0.1999992
0.1999989
0.1999985
0.199998
0.1999973
0.1999964
0.1999952
0.1999936
0.1999915
0.1999886
0.1999849
0.19998
0.1999736
0.1999653
0.1999545
0.1999407
0.1999231
0.1999009
0.1999999
0.1999999
0.1999999
0.1999999
0.1999998
0.1999998
0.1999998
0.1999998
0.1999997
0.1999996
0.1999995
0.1999994
0.1999992
0.1999989
0.1999985
0.199998
0.1999973
0.1999964
0.1999952
0.1999936
0.1999915
0.1999886
0.1999849
0.19998
0.1999736
0.1999653
0.1999546
0.1999408
0.1999232
0.199901
0.1999998
0.1999998
0.1999998
0.1999998
0.1999998
0.1999997
0.1999997
0.1999996
0.1999995
0.1999994
0.1999992
0.1999989
0.1999986
0.1999981
0.1999975
0.1999966
0.1999955
0.1999939
0.1999919
0.1999893
0.1999857
0.1999811
0.1999751
0.1999672
0.199957
0.1999438
0.1999269
0.1999052
0.1998777
0.1998431
0.1999998
0.1999998
0.1999998
0.1999998
0.1999998
0.1999997
0.1999997
0.1999996
0.1999995
0.1999994
0.1999992
0.1999989
0.1999986
0.1999981
0.1999974
0.1999966
0.1999954
0.1999939
0.1999919
0.1999892
0.1999857
0.199981
0.199975
0.1999671
0.1999568
0.1999435
0.1999265
0.1999047
0.1998771
0.1998423
0.1999999
0.1999999
0.1999999
0.1999999
0.1999998
0.1999998
0.1999998
0.1999998
0.1999997
0.1999996
0.1999995
0.1999994
0.1999992
0.1999989
0.1999985
0.199998
0.1999973
0.1999964
0.1999952
0.1999936
0.1999915
0.1999886
0.1999849
0.19998
0.1999736
0.1999652
0.1999545
0.1999406
0.199923
0.1999008
0.1999999
0.1999999
0.1999999
0.1999999
0.1999998
0.1999998
0.1999998
0.1999998
0.1999997
0.1999996
0.1999995
0.1999994
0.1999992
0.1999989
0.1999985
0.199998
0.1999974
0.1999965
0.1999953
0.1999937
0.1999915
0.1999887
0.199985
0.1999802
0.1999738
0.1999655
0.1999548
0.1999411
0.1999236
0.1999015
0.1999998
0.1999998
0.1999998
0.1999998
0.1999998
0.1999997
0.1999997
0.1999996
0.1999995
0.1999994
0.1999992
0.1999989
0.1999986
0.1999981
0.1999975
0.1999966
0.1999955
0.199994
0.199992
0.1999893
0.1999859
0.1999813
0.1999753
0.1999675
0.1999574
0.1999443
0.1999275
0.1999059
0.1998786
0.1998443
0.1999998
0.1999998
0.1999998
0.1999998
0.1999998
0.1999997
0.1999997
0.1999996
0.1999995
0.1999994
0.1999992
0.1999989
0.1999986
0.1999981
0.1999974
0.1999966
0.1999954
0.1999939
0.1999919
0.1999892
0.1999856
0.199981
0.1999749
0.1999669
0.1999566
0.1999432
0.199926
0.1999041
0.1998762
0.1998411
0.1999999
0.1999999
0.1999999
0.1999999
0.1999998
0.1999998
0.1999998
0.1999998
0.1999997
0.1999996
0.1999995
0.1999994
0.1999992
0.1999989
0.1999985
0.199998
0.1999973
0.1999964
0.1999952
0.1999936
0.1999914
0.1999886
0.1999849
0.1999799
0.1999735
0.1999652
0.1999544
0.1999405
0.1999228
0.1999006
0.1999999
0.1999999
0.1999999
0.1999999
0.1999998
0.1999998
0.1999998
0.1999998
0.1999997
0.1999996
0.1999995
0.1999994
0.1999992
0.1999989
0.1999985
0.199998
0.1999974
0.1999965
0.1999953
0.1999937
0.1999916
0.1999888
0.1999851
0.1999803
0.1999741
0.1999659
0.1999554
0.1999418
0.1999244
0.1999025
0.1999998
0.1999998
0.1999998
0.1999998
0.1999997
0.1999997
0.1999997
0.1999996
0.1999995
0.1999993
0.1999991
0.1999988
0.1999985
0.199998
0.1999973
0.1999964
0.1999952
0.1999935
0.1999914
0.1999885
0.1999848
0.1999798
0.1999733
0.1999648
0.1999538
0.1999395
0.1999211
0.1998976
0.1998676
0.1998299
0.1999989
0.1999989
0.1999988
0.1999988
0.1999987
0.1999985
0.1999983
0.1999981
0.1999977
0.1999972
0.1999965
0.1999955
0.1999944
0.1999928
0.1999908
0.1999882
0.1999849
0.1999806
0.1999752
0.1999683
0.1999597
0.1999489
0.1999354
0.1999187
0.1998981
0.199873
0.1998426
0.199806
0.1997622
0.1997105
0.1999993
0.1999993
0.1999993
0.1999993
0.1999992
0.1999992
0.1999991
0.1999989
0.1999987
0.1999985
0.1999981
0.1999976
0.199997
0.1999962
0.1999951
0.1999937
0.1999919
0.1999896
0.1999867
0.1999829
0.199978
0.1999719
0.1999643
0.1999546
0.1999427
0.1999279
0.1999099
0.1998881
0.1998619
0.1998309
0.1999993
0.1999993
0.1999993
0.1999993
0.1999992
0.1999992
0.1999991
0.1999989
0.1999987
0.1999985
0.1999981
0.1999977
0.199997
0.1999962
0.1999952
0.1999938
0.199992
0.1999897
0.1999867
0.1999829
0.199978
0.1999718
0.1999641
0.1999544
0.1999423
0.1999274
0.1999093
0.1998873
0.199861
0.19983
0.1999989
0.1999989
0.1999989
0.1999989
0.1999988
0.1999986
0.1999985
0.1999982
0.1999978
0.1999973
0.1999967
0.1999959
0.1999948
0.1999933
0.1999915
0.199989
0.199986
0.199982
0.199977
0.1999707
0.1999627
0.1999527
0.1999402
0.1999248
0.1999059
0.1998828
0.1998549
0.1998214
0.1997815
0.1997345
0.199999
0.1999989
0.1999989
0.1999989
0.1999988
0.1999987
0.1999985
0.1999982
0.1999979
0.1999974
0.1999968
0.1999959
0.1999948
0.1999934
0.1999916
0.1999892
0.1999862
0.1999823
0.1999774
0.1999712
0.1999633
0.1999535
0.1999413
0.1999262
0.1999076
0.199885
0.1998576
0.1998247
0.1997856
0.1997395
0.1999993
0.1999993
0.1999993
0.1999993
0.1999993
0.1999992
0.1999991
0.199999
0.1999988
0.1999985
0.1999982
0.1999977
0.1999971
0.1999963
0.1999952
0.1999939
0.1999921
0.1999898
0.1999869
0.1999831
0.1999784
0.1999723
0.1999646
0.1999551
0.1999432
0.1999285
0.1999106
0.1998889
0.1998629
0.1998322
0.1999993
0.1999993
0.1999993
0.1999993
0.1999993
0.1999992
0.1999991
0.199999
0.1999988
0.1999985
0.1999981
0.1999977
0.1999971
0.1999963
0.1999952
0.1999938
0.199992
0.1999897
0.1999868
0.199983
0.1999782
0.1999721
0.1999644
0.1999548
0.1999428
0.199928
0.19991
0.1998882
0.1998621
0.1998313
0.1999989
0.1999989
0.1999989
0.1999989
0.1999988
0.1999987
0.1999985
0.1999982
0.1999978
0.1999974
0.1999967
0.1999959
0.1999948
0.1999934
0.1999915
0.1999891
0.199986
0.1999821
0.1999771
0.1999708
0.1999629
0.199953
0.1999407
0.1999254
0.1999066
0.1998838
0.1998561
0.1998229
0.1997834
0.1997369
0.1999989
0.1999989
0.1999989
0.1999989
0.1999988
0.1999987
0.1999985
0.1999982
0.1999979
0.1999974
0.1999967
0.1999959
0.1999948
0.1999934
0.1999915
0.1999892
0.1999861
0.1999822
0.1999772
0.199971
0.1999631
0.1999532
0.1999409
0.1999257
0.1999071
0.1998843
0.1998568
0.1998237
0.1997844
0.1997381
0.1999993
0.1999993
0.1999993
0.1999993
0.1999993
0.1999992
0.1999991
0.199999
0.1999988
0.1999985
0.1999982
0.1999977
0.1999971
0.1999963
0.1999952
0.1999938
0.1999921
0.1999898
0.1999868
0.199983
0.1999782
0.1999721
0.1999645
0.1999549
0.1999429
0.1999282
0.1999102
0.1998884
0.1998624
0.1998316
0.1999993
0.1999993
0.1999993
0.1999993
0.1999993
0.1999992
0.1999991
0.199999
0.1999988
0.1999985
0.1999981
0.1999977
0.1999971
0.1999963
0.1999952
0.1999938
0.1999921
0.1999898
0.1999868
0.199983
0.1999782
0.1999721
0.1999644
0.1999548
0.1999428
0.1999281
0.19991
0.1998882
0.1998622
0.1998314
0.1999989
0.1999989
0.1999989
0.1999989
0.1999988
0.1999987
0.1999985
0.1999982
0.1999979
0.1999974
0.1999967
0.1999959
0.1999948
0.1999934
0.1999915
0.1999891
0.1999861
0.1999822
0.1999772
0.1999709
0.199963
0.1999531
0.1999408
0.1999255
0.1999068
0.199884
0.1998564
0.1998233
0.1997839
0.1997374
0.1999989
0.1999989
0.1999989
0.1999989
0.1999988
0.1999987
0.1999985
0.1999982
0.1999979
0.1999974
0.1999967
0.1999959
0.1999948
0.1999934
0.1999915
0.1999891
0.1999861
0.1999822
0.1999772
0.1999709
0.199963
0.1999531
0.1999408
0.1999256
0.1999069
0.1998841
0.1998565
0.1998234
0.199784
0.1997375
0.1999993
0.1999993
0.1999993
0.1999993
0.1999993
0.1999992
0.1999991
0.199999
0.1999988
0.1999985
0.1999981
0.1999977
0.1999971
0.1999963
0.1999952
0.1999938
0.199992
0.1999898
0.1999868
0.199983
0.1999782
0.1999721
0.1999644
0.1999548
0.1999428
0.1999281
0.19991
0.1998882
0.1998622
0.1998314
0.1999993
0.1999993
0.1999993
0.1999993
0.1999993
0.1999992
0.1999991
0.199999
0.1999988
0.1999985
0.1999981
0.1999977
0.1999971
0.1999963
0.1999952
0.1999938
0.199992
0.1999898
0.1999868
0.199983
0.1999782
0.1999721
0.1999644
0.1999548
0.1999428
0.1999281
0.19991
0.1998882
0.1998622
0.1998314
0.1999989
0.1999989
0.1999989
0.1999989
0.1999988
0.1999987
0.1999985
0.1999982
0.1999979
0.1999974
0.1999967
0.1999959
0.1999948
0.1999934
0.1999915
0.1999891
0.1999861
0.1999822
0.1999772
0.1999709
0.199963
0.1999531
0.1999408
0.1999256
0.1999069
0.1998841
0.1998565
0.1998234
0.199784
0.1997376
0.1999989
0.1999989
0.1999989
0.1999989
0.1999988
0.1999987
0.1999985
0.1999982
0.1999979
0.1999974
0.1999967
0.1999959
0.1999948
0.1999934
0.1999915
0.1999891
0.1999861
0.1999822
0.1999772
0.1999709
0.199963
0.1999531
0.1999408
0.1999255
0.1999068
0.199884
0.1998564
0.1998233
0.1997839
0.1997375
0.1999993
0.1999993
0.1999993
0.1999993
0.1999993
0.1999992
0.1999991
0.199999
0.1999988
0.1999985
0.1999981
0.1999977
0.1999971
0.1999963
0.1999952
0.1999938
0.1999921
0.1999898
0.1999868
0.199983
0.1999782
0.1999721
0.1999644
0.1999548
0.1999428
0.1999281
0.1999101
0.1998883
0.1998622
0.1998314
0.1999993
0.1999993
0.1999993
0.1999993
0.1999993
0.1999992
0.1999991
0.199999
0.1999988
0.1999985
0.1999982
0.1999977
0.1999971
0.1999963
0.1999952
0.1999938
0.1999921
0.1999898
0.1999868
0.199983
0.1999782
0.1999721
0.1999645
0.1999549
0.1999429
0.1999282
0.1999102
0.1998884
0.1998624
0.1998316
0.1999989
0.1999989
0.1999989
0.1999989
0.1999988
0.1999987
0.1999985
0.1999982
0.1999979
0.1999974
0.1999967
0.1999959
0.1999948
0.1999934
0.1999915
0.1999892
0.1999861
0.1999822
0.1999772
0.199971
0.1999631
0.1999532
0.1999409
0.1999257
0.199907
0.1998843
0.1998568
0.1998237
0.1997844
0.199738
0.1999989
0.1999989
0.1999989
0.1999989
0.1999988
0.1999987
0.1999985
0.1999982
0.1999978
0.1999974
0.1999967
0.1999959
0.1999948
0.1999933
0.1999915
0.1999891
0.199986
0.1999821
0.1999771
0.1999708
0.1999629
0.199953
0.1999406
0.1999253
0.1999066
0.1998837
0.199856
0.1998228
0.1997833
0.1997367
0.1999993
0.1999993
0.1999993
0.1999993
0.1999993
0.1999992
0.1999991
0.199999
0.1999988
0.1999985
0.1999981
0.1999977
0.1999971
0.1999963
0.1999952
0.1999938
0.199992
0.1999897
0.1999868
0.199983
0.1999782
0.1999721
0.1999644
0.1999547
0.1999428
0.199928
0.1999099
0.1998881
0.199862
0.1998312
0.1999993
0.1999993
0.1999993
0.1999993
0.1999993
0.1999992
0.1999991
0.199999
0.1999988
0.1999985
0.1999982
0.1999977
0.1999971
0.1999963
0.1999952
0.1999939
0.1999921
0.1999898
0.1999869
0.1999831
0.1999784
0.1999723
0.1999647
0.1999551
0.1999432
0.1999285
0.1999106
0.1998889
0.1998629
0.1998322
0.199999
0.1999989
0.1999989
0.1999989
0.1999988
0.1999987
0.1999985
0.1999982
0.1999979
0.1999974
0.1999968
0.1999959
0.1999948
0.1999934
0.1999916
0.1999892
0.1999862
0.1999823
0.1999774
0.1999712
0.1999633
0.1999535
0.1999413
0.1999262
0.1999077
0.199885
0.1998577
0.1998248
0.1997857
0.1997396
0.1999989
0.1999989
0.1999989
0.1999989
0.1999988
0.1999986
0.1999985
0.1999982
0.1999978
0.1999973
0.1999967
0.1999959
0.1999948
0.1999933
0.1999915
0.1999891
0.199986
0.199982
0.199977
0.1999707
0.1999627
0.1999527
0.1999403
0.1999249
0.199906
0.1998829
0.199855
0.1998215
0.1997816
0.1997347
0.1999993
0.1999993
0.1999993
0.1999993
0.1999992
0.1999992
0.1999991
0.1999989
0.1999987
0.1999985
0.1999981
0.1999977
0.199997
0.1999962
0.1999952
0.1999938
0.199992
0.1999897
0.1999867
0.1999829
0.199978
0.1999719
0.1999641
0.1999544
0.1999424
0.1999275
0.1999094
0.1998874
0.1998612
0.1998302
0.1999993
0.1999993
0.1999993
0.1999993
0.1999992
0.1999992
0.1999991
0.1999989
0.1999987
0.1999985
0.1999981
0.1999976
0.199997
0.1999962
0.1999951
0.1999937
0.199992
0.1999897
0.1999867
0.1999829
0.1999781
0.199972
0.1999643
0.1999548
0.1999428
0.1999281
0.1999101
0.1998883
0.1998622
0.1998313
0.1999989
0.1999989
0.1999988
0.1999988
0.1999987
0.1999986
0.1999984
0.1999981
0.1999977
0.1999972
0.1999965
0.1999956
0.1999944
0.1999928
0.1999908
0.1999882
0.1999849
0.1999807
0.1999753
0.1999684
0.1999598
0.199949
0.1999356
0.1999189
0.1998984
0.1998734
0.199843
0.1998065
0.1997628
0.1997112
0.1999961
0.1999961
0.199996
0.1999959
0.1999956
0.1999952
0.1999946
0.1999939
0.1999929
0.1999915
0.1999898
0.1999876
0.1999849
0.1999814
0.199977
0.1999716
0.1999649
0.1999566
0.1999464
0.1999341
0.1999191
0.199901
0.1998794
0.1998536
0.199823
0.199787
0.199745
0.1996961
0.1996396
0.1995748
0.1999976
0.1999976
0.1999976
0.1999976
0.1999975
0.1999973
0.199997
0.1999967
0.1999962
0.1999955
0.1999947
0.1999936
0.1999921
0.1999903
0.199988
0.1999851
0.1999815
0.199977
0.1999713
0.1999644
0.1999558
0.1999453
0.1999326
0.1999173
0.1998989
0.1998771
0.1998515
0.1998216
0.1997874
0.1997484
0.1999977
0.1999977
0.1999977
0.1999976
0.1999975
0.1999974
0.1999971
0.1999968
0.1999963
0.1999957
0.1999948
0.1999937
0.1999923
0.1999905
0.1999883
0.1999854
0.1999818
0.1999773
0.1999717
0.1999648
0.1999563
0.1999459
0.1999332
0.199918
0.1998997
0.1998781
0.1998527
0.1998232
0.1997894
0.199751
0.1999964
0.1999964
0.1999963
0.1999962
0.1999959
0.1999956
0.1999951
0.1999944
0.1999934
0.1999922
0.1999907
0.1999887
0.1999862
0.199983
0.199979
0.1999741
0.1999679
0.1999604
0.1999512
0.19994
0.1999264
0.19991
0.1998904
0.1998671
0.1998396
0.1998074
0.1997698
0.1997263
0.1996765
0.1996196
0.1999965
0.1999965
0.1999964
0.1999963
0.199996
0.1999957
0.1999952
0.1999945
0.1999936
0.1999924
0.1999909
0.199989
0.1999865
0.1999834
0.1999795
0.1999747
0.1999687
0.1999613
0.1999523
0.1999413
0.1999281
0.1999121
0.1998929
0.1998702
0.1998433
0.1998118
0.1997751
0.1997326
0.1996837
0.1996281
0.1999978
0.1999978
0.1999978
0.1999977
0.1999976
0.1999975
0.1999972
0.1999969
0.1999964
0.1999958
0.199995
0.1999939
0.1999925
0.1999908
0.1999886
0.1999858
0.1999822
0.1999778
0.1999724
0.1999656
0.1999573
0.1999471
0.1999347
0.1999197
0.1999018
0.1998806
0.1998556
0.1998266
0.1997932
0.1997553
0.1999977
0.1999978
0.1999977
0.1999977
0.1999976
0.1999975
0.1999972
0.1999969
0.1999964
0.1999958
0.1999949
0.1999939
0.1999925
0.1999907
0.1999885
0.1999856
0.1999821
0.1999777
0.1999722
0.1999653
0.1999569
0.1999467
0.1999342
0.1999191
0.1999011
0.1998797
0.1998546
0.1998254
0.1997918
0.1997537
0.1999965
0.1999964
0.1999964
0.1999962
0.199996
0.1999957
0.1999952
0.1999945
0.1999936
0.1999924
0.1999908
0.1999888
0.1999863
0.1999832
0.1999793
0.1999744
0.1999684
0.1999609
0.1999518
0.1999407
0.1999273
0.1999111
0.1998918
0.1998688
0.1998416
0.1998097
0.1997725
0.1997295
0.1996802
0.1996239
0.1999965
0.1999965
0.1999964
0.1999963
0.199996
0.1999957
0.1999952
0.1999945
0.1999936
0.1999924
0.1999909
0.1999889
0.1999864
0.1999833
0.1999794
0.1999745
0.1999685
0.1999611
0.199952
0.199941
0.1999276
0.1999116
0.1998923
0.1998694
0.1998424
0.1998107
0.1997737
0.199731
0.1996819
0.1996259
0.1999978
0.1999978
0.1999977
0.1999977
0.1999976
0.1999975
0.1999972
0.1999969
0.1999964
0.1999958
0.1999949
0.1999939
0.1999925
0.1999907
0.1999885
0.1999857
0.1999822
0.1999777
0.1999722
0.1999654
0.1999571
0.1999468
0.1999344
0.1999193
0.1999014
0.19988
0.199855
0.1998259
0.1997924
0.1997544
0.1999978
0.1999978
0.1999977
0.1999977
0.1999976
0.1999975
0.1999972
0.1999969
0.1999964
0.1999958
0.1999949
0.1999939
0.1999925
0.1999907
0.1999885
0.1999857
0.1999821
0.1999777
0.1999722
0.1999654
0.199957
0.1999467
0.1999342
0.1999192
0.1999012
0.1998798
0.1998547
0.1998255
0.199792
0.199754
0.1999965
0.1999965
0.1999964
0.1999963
0.199996
0.1999957
0.1999952
0.1999945
0.1999936
0.1999924
0.1999908
0.1999889
0.1999864
0.1999832
0.1999793
0.1999745
0.1999684
0.199961
0.1999519
0.1999408
0.1999274
0.1999113
0.199892
0.199869
0.1998419
0.1998101
0.199773
0.1997301
0.1996809
0.1996247
0.1999965
0.1999965
0.1999964
0.1999963
0.199996
0.1999957
0.1999952
0.1999945
0.1999936
0.1999924
0.1999908
0.1999889
0.1999864
0.1999833
0.1999793
0.1999745
0.1999684
0.199961
0.1999519
0.1999409
0.1999275
0.1999113
0.199892
0.1998691
0.199842
0.1998102
0.1997731
0.1997303
0.199681
0.1996249
0.1999978
0.1999978
0.1999977
0.1999977
0.1999976
0.1999975
0.1999972
0.1999969
0.1999964
0.1999958
0.1999949
0.1999939
0.1999925
0.1999907
0.1999885
0.1999857
0.1999821
0.1999777
0.1999722
0.1999654
0.199957
0.1999467
0.1999342
0.1999192
0.1999012
0.1998798
0.1998547
0.1998255
0.199792
0.1997539
0.1999978
0.1999978
0.1999977
0.1999977
0.1999976
0.1999975
0.1999972
0.1999969
0.1999964
0.1999958
0.1999949
0.1999939
0.1999925
0.1999907
0.1999885
0.1999857
0.1999821
0.1999777
0.1999722
0.1999654
0.199957
0.1999467
0.1999342
0.1999192
0.1999012
0.1998798
0.1998547
0.1998255
0.199792
0.1997539
0.1999965
0.1999965
0.1999964
0.1999963
0.199996
0.1999957
0.1999952
0.1999945
0.1999936
0.1999924
0.1999908
0.1999889
0.1999864
0.1999833
0.1999793
0.1999745
0.1999684
0.199961
0.1999519
0.1999409
0.1999275
0.1999113
0.199892
0.1998691
0.199842
0.1998102
0.1997732
0.1997303
0.199681
0.1996249
0.1999965
0.1999965
0.1999964
0.1999963
0.199996
0.1999957
0.1999952
0.1999945
0.1999936
0.1999924
0.1999908
0.1999889
0.1999864
0.1999832
0.1999793
0.1999745
0.1999684
0.199961
0.1999519
0.1999408
0.1999274
0.1999113
0.199892
0.199869
0.1998419
0.1998101
0.199773
0.1997301
0.1996808
0.1996247
0.1999978
0.1999978
0.1999977
0.1999977
0.1999976
0.1999975
0.1999972
0.1999969
0.1999964
0.1999958
0.1999949
0.1999939
0.1999925
0.1999907
0.1999885
0.1999857
0.1999821
0.1999777
0.1999722
0.1999654
0.199957
0.1999467
0.1999342
0.1999192
0.1999012
0.1998798
0.1998547
0.1998255
0.199792
0.1997539
0.1999978
0.1999978
0.1999977
0.1999977
0.1999976
0.1999975
0.1999972
0.1999969
0.1999964
0.1999958
0.1999949
0.1999939
0.1999925
0.1999907
0.1999885
0.1999857
0.1999821
0.1999777
0.1999722
0.1999654
0.1999571
0.1999468
0.1999344
0.1999193
0.1999013
0.19988
0.199855
0.1998258
0.1997924
0.1997543
0.1999965
0.1999965
0.1999964
0.1999963
0.199996
0.1999957
0.1999952
0.1999945
0.1999936
0.1999924
0.1999908
0.1999889
0.1999864
0.1999833
0.1999794
0.1999745
0.1999685
0.1999611
0.199952
0.199941
0.1999276
0.1999115
0.1998923
0.1998694
0.1998424
0.1998106
0.1997737
0.1997309
0.1996818
0.1996258
0.1999965
0.1999964
0.1999964
0.1999962
0.199996
0.1999957
0.1999952
0.1999945
0.1999935
0.1999923
0.1999908
0.1999888
0.1999863
0.1999832
0.1999793
0.1999744
0.1999683