/*--------------------------------*- C++ -*----------------------------------*\
| =========                 |                                                 |
| \\      /  F ield         | OpenFOAM: The Open Source CFD Toolbox           |
|  \\    /   O peration     | Version:  4.0                                   |
|   \\  /    A nd           | Web:      www.OpenFOAM.org                      |
|    \\/     M anipulation  |                                                 |
\*---------------------------------------------------------------------------*/
FoamFile
{
    version     2.0;
    format      ascii;
    class       volScalarField;
    location    "60/fuel";
    object      cp;
}
// * * * * * * * * * * * * * * * * * * * * * * * * * * * * * * * * * * * * * //

dimensions      [0 2 -2 -1 0 0 0];

internalField   nonuniform List<scalar> 
39776
(
1539.464
1539.482
1540.035
1540.053
1540.345
1540.364
1540.338
1540.357
1540.326
1540.345
1540.33
1540.348
1540.007
1540.026
1540.035
1540.053
1540.331
1540.35
1540.323
1540.342
1540.323
1540.341
1540.329
1540.348
1540.021
1540.04
1540.029
1540.048
1540.33
1540.349
1540.323
1540.341
1540.322
1540.341
1540.329
1540.348
1540.025
1540.043
1540.027
1540.045
1540.33
1540.348
1540.322
1540.34
1540.322
1540.34
1540.33
1540.348
1540.027
1540.045
1540.024
1540.042
1540.329
1540.347
1540.322
1540.34
1540.322
1540.341
1540.33
1540.349
1540.028
1540.046
1540.02
1540.038
1540.328
1540.347
1540.322
1540.34
1540.323
1540.342
1540.332
1540.35
1540.036
1540.054
1540.008
1540.026
1540.33
1540.349
1540.327
1540.346
1540.341
1540.359
1540.348
1540.367
1540.04
1540.058
1539.473
1539.491
1539.448
1539.466
1539.937
1539.955
1540.272
1540.291
1540.288
1540.307
1540.275
1540.293
1540.245
1540.263
1539.884
1539.902
1539.921
1539.939
1540.251
1540.269
1540.272
1540.29
1540.27
1540.288
1540.244
1540.263
1539.896
1539.914
1539.91
1539.928
1540.247
1540.265
1540.269
1540.288
1540.268
1540.286
1540.244
1540.262
1539.9
1539.918
1539.904
1539.922
1540.244
1540.263
1540.267
1540.286
1540.267
1540.286
1540.244
1540.263
1539.903
1539.922
1539.9
1539.918
1540.244
1540.263
1540.268
1540.287
1540.269
1540.288
1540.247
1540.265
1539.91
1539.928
1539.896
1539.914
1540.244
1540.263
1540.27
1540.288
1540.272
1540.29
1540.251
1540.269
1539.921
1539.939
1539.884
1539.902
1540.245
1540.263
1540.275
1540.294
1540.289
1540.307
1540.273
1540.291
1539.939
1539.957
1539.452
1539.47
1539.278
1539.296
1539.763
1539.781
1540.18
1540.198
1540.229
1540.247
1540.214
1540.232
1540.148
1540.167
1539.739
1539.757
1539.783
1539.801
1540.16
1540.178
1540.212
1540.231
1540.209
1540.228
1540.15
1540.169
1539.754
1539.772
1539.773
1539.79
1540.156
1540.174
1540.211
1540.229
1540.209
1540.228
1540.153
1540.171
1539.761
1539.779
1539.765
1539.783
1540.154
1540.172
1540.21
1540.228
1540.21
1540.228
1540.154
1540.172
1539.765
1539.783
1539.761
1539.779
1540.153
1540.171
1540.21
1540.228
1540.211
1540.229
1540.156
1540.174
1539.772
1539.79
1539.753
1539.771
1540.15
1540.168
1540.209
1540.227
1540.213
1540.231
1540.16
1540.179
1539.783
1539.801
1539.739
1539.757
1540.148
1540.167
1540.214
1540.232
1540.229
1540.247
1540.181
1540.199
1539.765
1539.783
1539.281
1539.299
1539.052
1539.069
1539.525
1539.543
1540.062
1540.08
1540.159
1540.177
1540.145
1540.164
1540.034
1540.053
1539.587
1539.605
1539.62
1539.638
1540.058
1540.076
1540.147
1540.165
1540.142
1540.16
1540.039
1540.057
1539.598
1539.616
1539.612
1539.63
1540.05
1540.068
1540.144
1540.162
1540.142
1540.16
1540.042
1540.06
1539.602
1539.62
1539.605
1539.623
1540.044
1540.063
1540.141
1540.159
1540.141
1540.159
1540.044
1540.063
1539.605
1539.623
1539.602
1539.619
1540.041
1540.059
1540.141
1540.159
1540.144
1540.162
1540.05
1540.068
1539.612
1539.629
1539.597
1539.615
1540.039
1540.057
1540.142
1540.16
1540.147
1540.165
1540.058
1540.076
1539.62
1539.638
1539.588
1539.605
1540.035
1540.053
1540.146
1540.164
1540.16
1540.178
1540.063
1540.081
1539.527
1539.545
1539.054
1539.072
1538.823
1538.84
1539.291
1539.309
1539.945
1539.963
1540.09
1540.109
1540.078
1540.096
1539.931
1539.949
1539.432
1539.45
1539.457
1539.475
1539.963
1539.981
1540.083
1540.101
1540.076
1540.094
1539.938
1539.956
1539.44
1539.458
1539.452
1539.469
1539.956
1539.974
1540.081
1540.099
1540.078
1540.096
1539.947
1539.965
1539.446
1539.464
1539.449
1539.466
1539.948
1539.966
1540.078
1540.096
1540.078
1540.096
1539.948
1539.966
1539.449
1539.466
1539.446
1539.464
1539.947
1539.965
1540.078
1540.096
1540.081
1540.099
1539.956
1539.974
1539.453
1539.47
1539.441
1539.459
1539.939
1539.957
1540.077
1540.095
1540.083
1540.101
1539.963
1539.981
1539.457
1539.475
1539.432
1539.45
1539.93
1539.949
1540.077
1540.095
1540.089
1540.107
1539.943
1539.961
1539.29
1539.308
1538.822
1538.84
1538.588
1538.605
1539.062
1539.08
1539.823
1539.841
1540.021
1540.039
1540.013
1540.031
1539.834
1539.853
1539.282
1539.3
1539.304
1539.322
1539.882
1539.9
1540.027
1540.045
1540.019
1540.037
1539.852
1539.87
1539.292
1539.309
1539.301
1539.319
1539.87
1539.888
1540.024
1540.042
1540.021
1540.039
1539.861
1539.879
1539.297
1539.314
1539.298
1539.316
1539.859
1539.877
1540.02
1540.038
1540.02
1540.038
1539.859
1539.877
1539.298
1539.316
1539.296
1539.314
1539.861
1539.879
1540.021
1540.039
1540.024
1540.042
1539.87
1539.888
1539.3
1539.318
1539.291
1539.308
1539.851
1539.869
1540.018
1540.036
1540.027
1540.045
1539.883
1539.901
1539.305
1539.323
1539.283
1539.301
1539.835
1539.853
1540.014
1540.032
1540.023
1540.041
1539.825
1539.843
1539.066
1539.084
1538.592
1538.609
1538.356
1538.373
1538.855
1538.872
1539.725
1539.743
1539.964
1539.982
1539.96
1539.978
1539.756
1539.774
1539.145
1539.163
1539.173
1539.19
1539.814
1539.832
1539.98
1539.998
1539.971
1539.989
1539.781
1539.799
1539.153
1539.171
1539.16
1539.178
1539.795
1539.813
1539.974
1539.992
1539.971
1539.989
1539.787
1539.805
1539.156
1539.174
1539.157
1539.174
1539.786
1539.804
1539.969
1539.987
1539.969
1539.987
1539.786
1539.804
1539.157
1539.174
1539.156
1539.174
1539.788
1539.806
1539.971
1539.99
1539.974
1539.992
1539.795
1539.813
1539.16
1539.178
1539.153
1539.171
1539.781
1539.799
1539.97
1539.988
1539.981
1539.999
1539.814
1539.832
1539.173
1539.191
1539.146
1539.163
1539.756
1539.774
1539.961
1539.979
1539.965
1539.983
1539.726
1539.744
1538.857
1538.874
1538.358
1538.376
1538.126
1538.144
1538.662
1538.68
1539.639
1539.657
1539.914
1539.932
1539.915
1539.933
1539.693
1539.711
1539.017
1539.035
1539.041
1539.059
1539.746
1539.764
1539.936
1539.954
1539.926
1539.944
1539.716
1539.734
1539.027
1539.044
1539.033
1539.05
1539.731
1539.749
1539.931
1539.949
1539.928
1539.946
1539.724
1539.742
1539.03
1539.048
1539.031
1539.048
1539.725
1539.743
1539.928
1539.946
1539.928
1539.946
1539.725
1539.743
1539.031
1539.048
1539.03
1539.048
1539.724
1539.742
1539.929
1539.947
1539.931
1539.949
1539.731
1539.749
1539.033
1539.05
1539.027
1539.044
1539.716
1539.734
1539.926
1539.944
1539.936
1539.954
1539.747
1539.765
1539.042
1539.059
1539.018
1539.035
1539.693
1539.711
1539.915
1539.933
1539.914
1539.933
1539.641
1539.658
1538.664
1538.682
1538.129
1538.146
1537.905
1537.923
1538.485
1538.503
1539.566
1539.584
1539.871
1539.889
1539.877
1539.895
1539.641
1539.659
1538.904
1538.922
1538.925
1538.942
1539.686
1539.704
1539.897
1539.915
1539.889
1539.907
1539.664
1539.682
1538.914
1538.932
1538.918
1538.935
1539.67
1539.687
1539.891
1539.909
1539.889
1539.907
1539.662
1539.68
1538.915
1538.933
1538.92
1538.937
1539.671
1539.689
1539.89
1539.908
1539.89
1539.908
1539.671
1539.689
1538.919
1538.937
1538.915
1538.933
1539.662
1539.68
1539.889
1539.907
1539.891
1539.909
1539.669
1539.687
1538.917
1538.935
1538.914
1538.931
1539.664
1539.682
1539.89
1539.908
1539.897
1539.915
1539.687
1539.705
1538.925
1538.942
1538.904
1538.922
1539.641
1539.658
1539.877
1539.895
1539.872
1539.89
1539.567
1539.585
1538.488
1538.505
1537.908
1537.925
1537.695
1537.712
1538.322
1538.339
1539.498
1539.516
1539.832
1539.85
1539.841
1539.859
1539.593
1539.611
1538.801
1538.819
1538.817
1538.835
1539.629
1539.647
1539.86
1539.878
1539.855
1539.873
1539.617
1539.635
1538.824
1538.842
1538.814
1538.831
1539.606
1539.624
1539.852
1539.87
1539.853
1539.871
1539.606
1539.624
1538.814
1538.831
1538.822
1538.84
1539.622
1539.639
1539.857
1539.875
1539.857
1539.875
1539.622
1539.639
1538.822
1538.84
1538.814
1538.831
1539.606
1539.624
1539.853
1539.871
1539.853
1539.871
1539.605
1539.623
1538.815
1538.832
1538.825
1538.843
1539.618
1539.636
1539.856
1539.874
1539.86
1539.878
1539.629
1539.647
1538.817
1538.835
1538.801
1538.818
1539.593
1539.611
1539.84
1539.858
1539.83
1539.848
1539.497
1539.515
1538.321
1538.339
1537.694
1537.712
1537.493
1537.51
1538.166
1538.184
1539.431
1539.449
1539.792
1539.81
1539.807
1539.825
1539.549
1539.567
1538.709
1538.727
1538.721
1538.738
1539.574
1539.592
1539.826
1539.844
1539.825
1539.843
1539.576
1539.594
1538.75
1538.767
1538.723
1538.74
1539.544
1539.561
1539.815
1539.833
1539.819
1539.837
1539.559
1539.577
1538.722
1538.739
1538.728
1538.745
1539.568
1539.585
1539.822
1539.84
1539.822
1539.84
1539.568
1539.585
1538.728
1538.745
1538.721
1538.739
1539.559
1539.577
1539.818
1539.836
1539.815
1539.833
1539.543
1539.561
1538.722
1538.74
1538.75
1538.767
1539.576
1539.594
1539.825
1539.843
1539.826
1539.844
1539.575
1539.593
1538.722
1538.739
1538.71
1538.727
1539.55
1539.568
1539.808
1539.826
1539.794
1539.812
1539.433
1539.451
1538.17
1538.187
1537.496
1537.514
1537.306
1537.324
1538.024
1538.041
1539.368
1539.386
1539.758
1539.776
1539.779
1539.797
1539.509
1539.527
1538.629
1538.647
1538.637
1538.655
1539.526
1539.544
1539.797
1539.815
1539.798
1539.816
1539.539
1539.557
1538.688
1538.705
1538.643
1538.661
1539.488
1539.505
1539.78
1539.798
1539.788
1539.806
1539.518
1539.536
1538.644
1538.662
1538.641
1538.658
1539.511
1539.529
1539.786
1539.804
1539.786
1539.804
1539.511
1539.529
1538.64
1538.658
1538.644
1538.662
1539.519
1539.537
1539.788
1539.806
1539.78
1539.798
1539.487
1539.505
1538.643
1538.661
1538.689
1538.706
1539.54
1539.557
1539.798
1539.816
1539.797
1539.815
1539.527
1539.545
1538.638
1538.655
1538.63
1538.647
1539.509
1539.527
1539.779
1539.797
1539.759
1539.777
1539.369
1539.387
1538.026
1538.043
1537.309
1537.326
1537.13
1537.147
1537.889
1537.906
1539.307
1539.325
1539.724
1539.742
1539.75
1539.768
1539.472
1539.49
1538.565
1538.582
1538.561
1538.578
1539.476
1539.493
1539.766
1539.784
1539.771
1539.789
1539.503
1539.521
1538.628
1538.646
1538.572
1538.59
1539.441
1539.459
1539.748
1539.766
1539.761
1539.779
1539.484
1539.501
1538.583
1538.601
1538.565
1538.583
1539.461
1539.479
1539.755
1539.773
1539.755
1539.773
1539.461
1539.479
1538.565
1538.583
1538.583
1538.601
1539.484
1539.501
1539.761
1539.779
1539.748
1539.766
1539.441
1539.458
1538.572
1538.59
1538.629
1538.646
1539.503
1539.521
1539.771
1539.789
1539.766
1539.784
1539.476
1539.494
1538.561
1538.579
1538.565
1538.583
1539.472
1539.49
1539.75
1539.768
1539.725
1539.743
1539.309
1539.327
1537.891
1537.909
1537.132
1537.149
1536.963
1536.98
1537.761
1537.778
1539.249
1539.266
1539.692
1539.71
1539.725
1539.742
1539.441
1539.459
1538.517
1538.535
1538.495
1538.513
1539.423
1539.441
1539.735
1539.753
1539.745
1539.763
1539.468
1539.486
1538.565
1538.582
1538.507
1538.524
1539.4
1539.417
1539.719
1539.737
1539.735
1539.753
1539.449
1539.467
1538.527
1538.544
1538.497
1538.514
1539.413
1539.431
1539.724
1539.742
1539.724
1539.742
1539.414
1539.431
1538.497
1538.514
1538.526
1538.544
1539.448
1539.466
1539.734
1539.752
1539.719
1539.737
1539.399
1539.417
1538.507
1538.525
1538.565
1538.582
1539.468
1539.485
1539.745
1539.763
1539.735
1539.753
1539.424
1539.442
1538.496
1538.513
1538.517
1538.534
1539.441
1539.458
1539.725
1539.742
1539.693
1539.711
1539.25
1539.268
1537.763
1537.781
1536.965
1536.982
1536.806
1536.823
1537.642
1537.66
1539.198
1539.216
1539.662
1539.68
1539.7
1539.717
1539.413
1539.431
1538.482
1538.5
1538.437
1538.454
1539.372
1539.39
1539.702
1539.72
1539.717
1539.735
1539.431
1539.449
1538.499
1538.517
1538.445
1538.463
1539.365
1539.383
1539.693
1539.711
1539.71
1539.728
1539.417
1539.435
1538.478
1538.495
1538.438
1538.455
1539.372
1539.389
1539.695
1539.713
1539.695
1539.713
1539.372
1539.389
1538.438
1538.455
1538.478
1538.495
1539.417
1539.435
1539.71
1539.728
1539.693
1539.711
1539.365
1539.383
1538.446
1538.464
1538.5
1538.518
1539.432
1539.45
1539.718
1539.736
1539.702
1539.72
1539.372
1539.39
1538.436
1538.454
1538.481
1538.498
1539.412
1539.43
1539.698
1539.716
1539.66
1539.678
1539.197
1539.215
1537.642
1537.659
1536.805
1536.822
1536.654
1536.671
1537.524
1537.541
1539.138
1539.156
1539.628
1539.646
1539.673
1539.691
1539.386
1539.404
1538.453
1538.47
1538.384
1538.402
1539.319
1539.336
1539.668
1539.686
1539.69
1539.708
1539.396
1539.413
1538.435
1538.453
1538.388
1538.405
1539.328
1539.346
1539.666
1539.684
1539.684
1539.702
1539.384
1539.402
1538.425
1538.442
1538.381
1538.398
1539.328
1539.345
1539.664
1539.682
1539.664
1539.682
1539.328
1539.345
1538.381
1538.398
1538.425
1538.442
1539.384
1539.401
1539.683
1539.701
1539.666
1539.683
1539.328
1539.346
1538.388
1538.405
1538.435
1538.452
1539.395
1539.413
1539.689
1539.707
1539.668
1539.686
1539.32
1539.338
1538.385
1538.403
1538.453
1538.47
1539.387
1539.404
1539.674
1539.692
1539.63
1539.648
1539.141
1539.158
1537.528
1537.545
1536.658
1536.675
1536.513
1536.53
1537.412
1537.429
1539.078
1539.095
1539.597
1539.615
1539.651
1539.669
1539.364
1539.382
1538.427
1538.444
1538.34
1538.358
1539.27
1539.288
1539.637
1539.655
1539.664
1539.682
1539.362
1539.38
1538.382
1538.399
1538.334
1538.351
1539.289
1539.307
1539.638
1539.656
1539.657
1539.675
1539.349
1539.366
1538.363
1538.38
1538.325
1538.342
1539.291
1539.309
1539.635
1539.653
1539.635
1539.653
1539.291
1539.309
1538.325
1538.342
1538.363
1538.38
1539.349
1539.367
1539.657
1539.675
1539.638
1539.656
1539.29
1539.307
1538.334
1538.351
1538.382
1538.4
1539.363
1539.38
1539.664
1539.682
1539.637
1539.655
1539.271
1539.289
1538.341
1538.358
1538.427
1538.444
1539.364
1539.381
1539.652
1539.669
1539.598
1539.616
1539.079
1539.097
1537.414
1537.431
1536.516
1536.533
1536.374
1536.391
1537.29
1537.307
1538.993
1539.01
1539.556
1539.574
1539.624
1539.642
1539.335
1539.353
1538.391
1538.409
1538.294
1538.312
1539.214
1539.232
1539.601
1539.619
1539.635
1539.653
1539.325
1539.343
1538.324
1538.342
1538.28
1538.297
1539.243
1539.261
1539.607
1539.625
1539.628
1539.646
1539.306
1539.324
1538.3
1538.318
1538.271
1538.289
1539.255
1539.272
1539.608
1539.625
1539.608
1539.625
1539.255
1539.272
1538.271
1538.289
1538.3
1538.318
1539.307
1539.324
1539.628
1539.646
1539.607
1539.625
1539.243
1539.261
1538.28
1538.297
1538.324
1538.342
1539.325
1539.343
1539.635
1539.653
1539.601
1539.619
1539.214
1539.232
1538.295
1538.312
1538.391
1538.409
1539.335
1539.353
1539.624
1539.642
1539.557
1539.575
1538.994
1539.012
1537.292
1537.309
1536.377
1536.393
1536.226
1536.243
1537.133
1537.151
1538.847
1538.865
1539.496
1539.514
1539.59
1539.608
1539.297
1539.315
1538.323
1538.34
1538.24
1538.257
1539.146
1539.164
1539.56
1539.578
1539.6
1539.618
1539.269
1539.287
1538.259
1538.276
1538.221
1538.238
1539.182
1539.199
1539.57
1539.588
1539.592
1539.61
1539.244
1539.261
1538.235
1538.253
1538.212
1538.23
1539.197
1539.214
1539.572
1539.589
1539.572
1539.589
1539.197
1539.214
1538.213
1538.23
1538.235
1538.253
1539.243
1539.261
1539.592
1539.609
1539.57
1539.588
1539.182
1539.2
1538.221
1538.238
1538.258
1538.276
1539.269
1539.286
1539.6
1539.618
1539.56
1539.578
1539.146
1539.164
1538.24
1538.258
1538.323
1538.341
1539.297
1539.315
1539.591
1539.609
1539.497
1539.515
1538.849
1538.867
1537.136
1537.153
1536.229
1536.246
1536.059
1536.076
1536.958
1536.975
1538.697
1538.714
1539.43
1539.448
1539.551
1539.569
1539.25
1539.268
1538.257
1538.275
1538.175
1538.192
1539.072
1539.09
1539.515
1539.533
1539.562
1539.58
1539.206
1539.223
1538.187
1538.204
1538.153
1538.171
1539.116
1539.134
1539.532
1539.549
1539.554
1539.571
1539.176
1539.193
1538.167
1538.184
1538.149
1538.166
1539.136
1539.154
1539.535
1539.553
1539.535
1539.553
1539.136
1539.154
1538.149
1538.166
1538.167
1538.184
1539.176
1539.194
1539.554
1539.572
1539.532
1539.55
1539.117
1539.134
1538.154
1538.172
1538.188
1538.205
1539.206
1539.224
1539.562
1539.58
1539.515
1539.532
1539.071
1539.089
1538.174
1538.192
1538.257
1538.274
1539.25
1539.267
1539.55
1539.568
1539.429
1539.447
1538.696
1538.714
1536.958
1536.975
1536.058
1536.075
1535.813
1535.83
1536.589
1536.606
1538.181
1538.199
1539.234
1539.252
1539.434
1539.452
1539.034
1539.051
1538.13
1538.148
1538.056
1538.074
1538.836
1538.853
1539.407
1539.425
1539.458
1539.475
1538.969
1538.987
1538.069
1538.086
1538.038
1538.056
1538.887
1538.904
1539.429
1539.447
1539.449
1539.467
1538.937
1538.955
1538.049
1538.067
1538.035
1538.053
1538.908
1538.925
1539.433
1539.451
1539.433
1539.451
1538.908
1538.926
1538.036
1538.053
1538.049
1538.067
1538.937
1538.955
1539.449
1539.467
1539.429
1539.447
1538.887
1538.905
1538.038
1538.056
1538.068
1538.086
1538.969
1538.986
1539.457
1539.475
1539.408
1539.426
1538.837
1538.854
1538.058
1538.075
1538.131
1538.149
1539.035
1539.052
1539.436
1539.453
1539.237
1539.255
1538.185
1538.203
1536.594
1536.611
1535.818
1535.835
1535.397
1535.414
1535.954
1535.971
1537.244
1537.261
1538.661
1538.678
1539.082
1539.1
1538.565
1538.583
1537.867
1537.885
1537.803
1537.821
1538.398
1538.415
1539.078
1539.095
1539.133
1539.151
1538.505
1538.523
1537.813
1537.83
1537.787
1537.804
1538.44
1538.458
1539.105
1539.123
1539.123
1539.141
1538.473
1538.491
1537.792
1537.81
1537.783
1537.8
1538.456
1538.474
1539.112
1539.13
1539.112
1539.13
1538.457
1538.474
1537.783
1537.8
1537.792
1537.81
1538.474
1538.492
1539.124
1539.141
1539.105
1539.123
1538.441
1538.458
1537.787
1537.805
1537.813
1537.83
1538.505
1538.522
1539.133
1539.151
1539.078
1539.096
1538.398
1538.416
1537.804
1537.822
1537.868
1537.885
1538.566
1538.583
1539.083
1539.101
1538.663
1538.68
1537.247
1537.264
1535.958
1535.975
1535.401
1535.418
1539.516
1539.564
1539.611
1539.656
1539.698
1539.737
1539.773
1539.807
1539.836
1539.863
1539.886
1539.906
1539.922
1539.935
1539.946
1539.954
1539.959
1539.963
1539.965
1539.966
1540.088
1540.138
1540.187
1540.235
1540.28
1540.322
1540.36
1540.395
1540.426
1540.453
1540.475
1540.494
1540.509
1540.521
1540.53
1540.536
1540.54
1540.543
1540.544
1540.546
1540.399
1540.45
1540.501
1540.552
1540.601
1540.647
1540.69
1540.729
1540.763
1540.792
1540.815
1540.834
1540.848
1540.859
1540.866
1540.87
1540.873
1540.874
1540.874
1540.873
1540.391
1540.442
1540.493
1540.542
1540.589
1540.634
1540.675
1540.712
1540.744
1540.771
1540.793
1540.81
1540.823
1540.832
1540.838
1540.841
1540.842
1540.842
1540.841
1540.839
1540.379
1540.43
1540.48
1540.53
1540.577
1540.622
1540.664
1540.701
1540.734
1540.763
1540.786
1540.804
1540.818
1540.828
1540.834
1540.838
1540.84
1540.84
1540.84
1540.838
1540.383
1540.434
1540.485
1540.536
1540.585
1540.632
1540.675
1540.715
1540.75
1540.78
1540.804
1540.824
1540.839
1540.85
1540.858
1540.863
1540.866
1540.867
1540.867
1540.867
1540.06
1540.109
1540.157
1540.203
1540.246
1540.287
1540.324
1540.358
1540.389
1540.416
1540.44
1540.46
1540.477
1540.491
1540.502
1540.51
1540.517
1540.522
1540.525
1540.527
1540.088
1540.137
1540.186
1540.232
1540.275
1540.316
1540.354
1540.388
1540.419
1540.446
1540.47
1540.49
1540.507
1540.52
1540.531
1540.54
1540.546
1540.551
1540.554
1540.556
1540.385
1540.436
1540.487
1540.537
1540.586
1540.633
1540.676
1540.716
1540.75
1540.78
1540.804
1540.823
1540.838
1540.849
1540.857
1540.862
1540.865
1540.866
1540.866
1540.865
1540.376
1540.427
1540.477
1540.526
1540.574
1540.619
1540.66
1540.698
1540.731
1540.759
1540.782
1540.801
1540.815
1540.825
1540.831
1540.835
1540.837
1540.838
1540.837
1540.835
1540.376
1540.426
1540.477
1540.526
1540.573
1540.618
1540.659
1540.697
1540.73
1540.758
1540.782
1540.8
1540.814
1540.824
1540.831
1540.835
1540.837
1540.837
1540.837
1540.835
1540.383
1540.434
1540.485
1540.535
1540.584
1540.631
1540.674
1540.713
1540.748
1540.778
1540.802
1540.822
1540.837
1540.848
1540.855
1540.86
1540.863
1540.865
1540.865
1540.864
1540.074
1540.123
1540.171
1540.217
1540.26
1540.301
1540.338
1540.372
1540.403
1540.43
1540.453
1540.474
1540.49
1540.504
1540.515
1540.524
1540.53
1540.535
1540.538
1540.54
1540.082
1540.131
1540.179
1540.225
1540.268
1540.309
1540.347
1540.381
1540.411
1540.439
1540.462
1540.482
1540.499
1540.513
1540.524
1540.532
1540.539
1540.543
1540.546
1540.549
1540.383
1540.434
1540.485
1540.536
1540.585
1540.631
1540.674
1540.714
1540.748
1540.778
1540.802
1540.822
1540.837
1540.847
1540.855
1540.86
1540.863
1540.864
1540.864
1540.864
1540.376
1540.426
1540.476
1540.525
1540.573
1540.617
1540.659
1540.696
1540.73
1540.758
1540.781
1540.799
1540.813
1540.823
1540.83
1540.834
1540.836
1540.837
1540.836
1540.834
1540.375
1540.426
1540.476
1540.525
1540.572
1540.617
1540.658
1540.696
1540.729
1540.757
1540.781
1540.799
1540.813
1540.823
1540.83
1540.834
1540.836
1540.836
1540.836
1540.834
1540.382
1540.433
1540.484
1540.535
1540.584
1540.63
1540.673
1540.713
1540.747
1540.777
1540.801
1540.821
1540.836
1540.847
1540.854
1540.859
1540.862
1540.864
1540.864
1540.863
1540.077
1540.126
1540.174
1540.22
1540.263
1540.304
1540.341
1540.375
1540.406
1540.433
1540.457
1540.477
1540.493
1540.507
1540.518
1540.527
1540.533
1540.538
1540.541
1540.543
1540.08
1540.129
1540.177
1540.223
1540.266
1540.307
1540.344
1540.378
1540.409
1540.436
1540.459
1540.48
1540.496
1540.51
1540.521
1540.53
1540.536
1540.54
1540.544
1540.546
1540.383
1540.434
1540.485
1540.535
1540.584
1540.63
1540.674
1540.713
1540.747
1540.777
1540.801
1540.821
1540.836
1540.847
1540.854
1540.859
1540.862
1540.864
1540.864
1540.863
1540.375
1540.425
1540.475
1540.524
1540.572
1540.616
1540.658
1540.696
1540.729
1540.757
1540.78
1540.799
1540.813
1540.823
1540.83
1540.834
1540.836
1540.836
1540.836
1540.834
1540.375
1540.425
1540.475
1540.524
1540.572
1540.616
1540.658
1540.696
1540.729
1540.757
1540.78
1540.799
1540.813
1540.823
1540.83
1540.834
1540.836
1540.836
1540.836
1540.834
1540.383
1540.434
1540.485
1540.535
1540.584
1540.63
1540.674
1540.713
1540.747
1540.777
1540.801
1540.821
1540.836
1540.847
1540.854
1540.859
1540.862
1540.864
1540.864
1540.863
1540.08
1540.129
1540.177
1540.223
1540.266
1540.306
1540.344
1540.378
1540.409
1540.436
1540.459
1540.479
1540.496
1540.51
1540.521
1540.529
1540.536
1540.54
1540.544
1540.546
1540.076
1540.126
1540.174
1540.22
1540.263
1540.303
1540.341
1540.375
1540.406
1540.433
1540.456
1540.476
1540.493
1540.507
1540.518
1540.526
1540.533
1540.537
1540.541
1540.543
1540.382
1540.433
1540.484
1540.534
1540.583
1540.63
1540.673
1540.713
1540.747
1540.777
1540.801
1540.821
1540.836
1540.847
1540.854
1540.859
1540.862
1540.864
1540.864
1540.863
1540.375
1540.425
1540.475
1540.524
1540.572
1540.617
1540.658
1540.696
1540.729
1540.757
1540.781
1540.799
1540.813
1540.823
1540.83
1540.834
1540.836
1540.836
1540.836
1540.834
1540.375
1540.426
1540.476
1540.525
1540.572
1540.617
1540.659
1540.696
1540.729
1540.758
1540.781
1540.799
1540.813
1540.823
1540.83
1540.834
1540.836
1540.837
1540.836
1540.834
1540.383
1540.434
1540.485
1540.536
1540.584
1540.631
1540.674
1540.714
1540.748
1540.778
1540.802
1540.822
1540.836
1540.847
1540.855
1540.86
1540.863
1540.864
1540.864
1540.864
1540.08
1540.13
1540.178
1540.224
1540.267
1540.308
1540.346
1540.38
1540.411
1540.438
1540.461
1540.482
1540.498
1540.512
1540.523
1540.532
1540.538
1540.542
1540.546
1540.548
1540.072
1540.122
1540.17
1540.215
1540.259
1540.299
1540.337
1540.371
1540.402
1540.429
1540.453
1540.473
1540.49
1540.503
1540.514
1540.523
1540.529
1540.534
1540.537
1540.54
1540.381
1540.433
1540.484
1540.534
1540.583
1540.63
1540.673
1540.713
1540.748
1540.777
1540.802
1540.821
1540.836
1540.848
1540.855
1540.86
1540.863
1540.865
1540.865
1540.864
1540.375
1540.426
1540.476
1540.525
1540.572
1540.617
1540.659
1540.697
1540.73
1540.758
1540.782
1540.8
1540.814
1540.824
1540.831
1540.835
1540.837
1540.837
1540.837
1540.835
1540.377
1540.427
1540.477
1540.527
1540.574
1540.619
1540.66
1540.698
1540.731
1540.759
1540.782
1540.801
1540.815
1540.825
1540.831
1540.835
1540.837
1540.838
1540.837
1540.835
1540.385
1540.436
1540.487
1540.538
1540.587
1540.633
1540.676
1540.716
1540.75
1540.78
1540.804
1540.824
1540.838
1540.849
1540.857
1540.862
1540.865
1540.866
1540.866
1540.865
1540.089
1540.138
1540.186
1540.232
1540.276
1540.317
1540.354
1540.389
1540.419
1540.447
1540.47
1540.49
1540.507
1540.521
1540.532
1540.54
1540.546
1540.551
1540.554
1540.556
1540.061
1540.11
1540.158
1540.204
1540.247
1540.287
1540.325
1540.359
1540.389
1540.417
1540.44
1540.46
1540.477
1540.491
1540.502
1540.511
1540.517
1540.522
1540.525
1540.528
1540.383
1540.435
1540.486
1540.536
1540.585
1540.632
1540.676
1540.715
1540.75
1540.78
1540.804
1540.824
1540.839
1540.85
1540.858
1540.863
1540.866
1540.867
1540.867
1540.866
1540.381
1540.431
1540.481
1540.53
1540.578
1540.623
1540.664
1540.702
1540.735
1540.763
1540.786
1540.804
1540.818
1540.828
1540.834
1540.838
1540.84
1540.84
1540.84
1540.838
1540.394
1540.444
1540.494
1540.543
1540.59
1540.635
1540.676
1540.713
1540.745
1540.772
1540.793
1540.811
1540.823
1540.832
1540.838
1540.841
1540.842
1540.842
1540.841
1540.839
1540.401
1540.452
1540.503
1540.553
1540.602
1540.648
1540.691
1540.73
1540.763
1540.792
1540.816
1540.834
1540.848
1540.859
1540.866
1540.87
1540.873
1540.874
1540.874
1540.873
1540.092
1540.143
1540.191
1540.239
1540.283
1540.325
1540.363
1540.398
1540.429
1540.455
1540.478
1540.497
1540.512
1540.523
1540.532
1540.538
1540.542
1540.545
1540.547
1540.548
1539.524
1539.572
1539.618
1539.663
1539.705
1539.744
1539.78
1539.813
1539.843
1539.869
1539.892
1539.911
1539.928
1539.941
1539.951
1539.959
1539.965
1539.969
1539.971
1539.971
1539.5
1539.548
1539.594
1539.639
1539.682
1539.721
1539.758
1539.792
1539.823
1539.851
1539.875
1539.896
1539.913
1539.927
1539.939
1539.947
1539.954
1539.957
1539.959
1539.96
1539.989
1540.039
1540.088
1540.136
1540.182
1540.225
1540.265
1540.303
1540.337
1540.367
1540.393
1540.416
1540.435
1540.451
1540.463
1540.473
1540.479
1540.484
1540.486
1540.488
1540.325
1540.376
1540.427
1540.476
1540.525
1540.571
1540.616
1540.657
1540.695
1540.73
1540.761
1540.789
1540.813
1540.834
1540.852
1540.867
1540.88
1540.891
1540.901
1540.91
1540.341
1540.392
1540.441
1540.49
1540.537
1540.582
1540.625
1540.664
1540.701
1540.734
1540.763
1540.789
1540.812
1540.831
1540.847
1540.86
1540.871
1540.881
1540.888
1540.894
1540.328
1540.378
1540.428
1540.476
1540.524
1540.569
1540.612
1540.652
1540.688
1540.722
1540.752
1540.779
1540.802
1540.822
1540.839
1540.854
1540.866
1540.875
1540.884
1540.891
1540.297
1540.348
1540.399
1540.448
1540.497
1540.544
1540.588
1540.63
1540.669
1540.705
1540.737
1540.766
1540.792
1540.814
1540.833
1540.85
1540.864
1540.877
1540.888
1540.899
1539.936
1539.985
1540.032
1540.078
1540.122
1540.163
1540.201
1540.237
1540.27
1540.299
1540.325
1540.347
1540.367
1540.383
1540.396
1540.406
1540.414
1540.42
1540.423
1540.425
1539.973
1540.022
1540.07
1540.116
1540.16
1540.202
1540.241
1540.277
1540.31
1540.339
1540.366
1540.388
1540.408
1540.424
1540.437
1540.447
1540.455
1540.46
1540.464
1540.466
1540.304
1540.354
1540.405
1540.455
1540.503
1540.55
1540.594
1540.636
1540.674
1540.71
1540.742
1540.77
1540.795
1540.817
1540.836
1540.852
1540.866
1540.878
1540.889
1540.899
1540.325
1540.375
1540.425
1540.473
1540.521
1540.566
1540.609
1540.649
1540.686
1540.719
1540.749
1540.776
1540.799
1540.819
1540.836
1540.85
1540.862
1540.872
1540.88
1540.887
1540.323
1540.373
1540.423
1540.472
1540.519
1540.564
1540.607
1540.647
1540.684
1540.717
1540.748
1540.774
1540.798
1540.818
1540.835
1540.849
1540.861
1540.871
1540.88
1540.887
1540.297
1540.348
1540.398
1540.448
1540.497
1540.543
1540.588
1540.63
1540.669
1540.704
1540.736
1540.765
1540.79
1540.812
1540.832
1540.848
1540.862
1540.875
1540.886
1540.896
1539.948
1539.997
1540.045
1540.091
1540.135
1540.176
1540.215
1540.251
1540.283
1540.313
1540.339
1540.361
1540.381
1540.397
1540.41
1540.421
1540.428
1540.434
1540.437
1540.439
1539.962
1540.012
1540.06
1540.106
1540.15
1540.191
1540.23
1540.266
1540.299
1540.329
1540.355
1540.377
1540.397
1540.413
1540.426
1540.436
1540.444
1540.45
1540.453
1540.455
1540.3
1540.351
1540.401
1540.451
1540.499
1540.546
1540.59
1540.632
1540.671
1540.706
1540.738
1540.767
1540.792
1540.814
1540.833
1540.849
1540.863
1540.876
1540.887
1540.897
1540.322
1540.373
1540.423
1540.471
1540.518
1540.564
1540.607
1540.647
1540.684
1540.717
1540.747
1540.774
1540.797
1540.817
1540.834
1540.849
1540.861
1540.871
1540.879
1540.886
1540.321
1540.371
1540.421
1540.47
1540.517
1540.562
1540.605
1540.645
1540.682
1540.716
1540.746
1540.773
1540.797
1540.817
1540.834
1540.848
1540.86
1540.87
1540.878
1540.885
1540.296
1540.347
1540.398
1540.448
1540.497
1540.543
1540.588
1540.63
1540.669
1540.704
1540.736
1540.765
1540.79
1540.812
1540.831
1540.848
1540.862
1540.874
1540.885
1540.896
1539.952
1540.001
1540.049
1540.095
1540.139
1540.181
1540.22
1540.256
1540.288
1540.318
1540.344
1540.367
1540.386
1540.402
1540.415
1540.426
1540.434
1540.439
1540.442
1540.444
1539.956
1540.005
1540.053
1540.099
1540.143
1540.185
1540.224
1540.26
1540.293
1540.322
1540.348
1540.371
1540.39
1540.407
1540.42
1540.43
1540.438
1540.443
1540.447
1540.448
1540.297
1540.348
1540.399
1540.449
1540.497
1540.544
1540.588
1540.63
1540.669
1540.705
1540.737
1540.765
1540.79
1540.812
1540.832
1540.848
1540.862
1540.875
1540.886
1540.896
1540.32
1540.371
1540.421
1540.47
1540.517
1540.562
1540.605
1540.645
1540.682
1540.716
1540.746
1540.773
1540.796
1540.817
1540.834
1540.848
1540.86
1540.87
1540.878
1540.885
1540.32
1540.371
1540.421
1540.47
1540.517
1540.562
1540.605
1540.645
1540.682
1540.716
1540.746
1540.773
1540.796
1540.817
1540.834
1540.848
1540.86
1540.87
1540.878
1540.885