/*--------------------------------*- C++ -*----------------------------------*\
| =========                 |                                                 |
| \\      /  F ield         | OpenFOAM: The Open Source CFD Toolbox           |
|  \\    /   O peration     | Version:  4.0                                   |
|   \\  /    A nd           | Web:      www.OpenFOAM.org                      |
|    \\/     M anipulation  |                                                 |
\*---------------------------------------------------------------------------*/
FoamFile
{
    version     2.0;
    format      ascii;
    class       surfaceScalarField;
    location    "60/fuel";
    object      phi;
}
// * * * * * * * * * * * * * * * * * * * * * * * * * * * * * * * * * * * * * //

dimensions      [1 0 -1 0 0 0 0];

internalField   nonuniform List<scalar> 
111448
(
4.296406e-12
-6.313614e-13
5.467901e-13
-1.881546e-12
1.623757e-12
4.554196e-12
5.028765e-12
-2.146672e-12
7.772841e-13
-6.37691e-12
2.330767e-12
7.193365e-12
7.212652e-13
-1.126254e-12
2.633635e-12
-3.351981e-12
7.92195e-12
-1.022562e-11
8.218197e-13
-2.322581e-13
2.668131e-12
-6.943249e-13
8.029986e-12
-9.865819e-12
1.168947e-12
3.683395e-13
2.610891e-12
1.093264e-12
7.857124e-12
-8.475764e-12
7.360933e-13
1.415259e-12
2.579725e-12
4.205674e-12
7.758971e-12
-1.013527e-11
4.865173e-12
-5.962871e-14
8.875173e-13
-1.778269e-13
2.651767e-12
6.596897e-12
4.929167e-12
-1.606383e-12
9.004793e-13
-4.774204e-12
2.692134e-12
6.83341e-12
7.638716e-13
-6.271022e-13
2.620665e-12
-1.866779e-12
7.881245e-12
-1.00248e-11
1.142421e-12
-4.425674e-14
2.646264e-12
-1.320408e-13
7.962961e-12
-8.555283e-12
1.167108e-12
5.064308e-13
2.640519e-12
1.507628e-12
7.945607e-12
-8.418166e-12
7.455455e-13
1.499424e-12
2.611701e-12
4.45736e-12
7.854317e-12
-1.005851e-11
4.876877e-12
-1.709582e-14
9.073725e-13
-5.051135e-14
2.71163e-12
6.673125e-12
4.897501e-12
-1.555141e-12
9.09899e-13
-4.62172e-12
2.719722e-12
6.748988e-12
7.490169e-13
-5.696627e-13
2.616332e-12
-1.695185e-12
7.868049e-12
-1.004556e-11
1.15317e-12
-1.039184e-14
2.641395e-12
-3.098613e-14
7.947944e-12
-8.45897e-12
1.167226e-12
5.352657e-13
2.64077e-12
1.592875e-12
7.945928e-12
-8.402562e-12
7.447432e-13
1.520804e-12
2.615477e-12
4.520058e-12
7.865328e-12
-1.004776e-11
4.880636e-12
-7.061044e-15
9.110841e-13
-2.120441e-14
2.722888e-12
6.699008e-12
4.885418e-12
-1.538859e-12
9.108771e-13
-4.574328e-12
2.722431e-12
6.716112e-12
7.433901e-13
-5.498195e-13
2.613517e-12
-1.636933e-12
7.859625e-12
-1.005362e-11
1.166317e-12
-1.033274e-16
2.637516e-12
-3.151433e-16
7.936476e-12
-8.406787e-12
1.166518e-12
5.493682e-13
2.637501e-12
1.635661e-12
7.93643e-12
-8.405891e-12
7.432166e-13
1.538394e-12
2.613472e-12
4.572919e-12
7.859492e-12
-1.005353e-11
4.884564e-12
7.036006e-15
9.109407e-13
2.092827e-14
2.722583e-12
6.713974e-12
4.884561e-12
-1.521018e-12
9.111603e-13
-4.520619e-12
2.723192e-12
6.702914e-12
7.487925e-13
-5.355523e-13
2.615421e-12
-1.593591e-12
7.865195e-12
-1.004343e-11
1.17064e-12
1.027578e-14
2.640925e-12
3.056204e-14
7.946342e-12
-8.399856e-12
1.157158e-12
5.693822e-13
2.64122e-12
1.694386e-12
7.947443e-12
-8.454114e-12
7.476295e-13
1.555012e-12
2.616364e-12
4.621485e-12
7.868161e-12
-1.004763e-11
4.905839e-12
1.737522e-14
9.098968e-13
5.122712e-14
2.719657e-12
6.756443e-12
4.886249e-12
-1.499457e-12
9.073621e-13
-4.457599e-12
2.711595e-12
6.683484e-12
7.549013e-13
-5.065909e-13
2.611717e-12
-1.508147e-12
7.854367e-12
-1.004892e-11
1.17615e-12
4.415377e-14
2.640525e-12
1.316662e-13
7.945633e-12
-8.409295e-12
1.138536e-12
6.271617e-13
2.646172e-12
1.866601e-12
7.962694e-12
-8.5591e-12
7.59238e-13
1.606923e-12
2.62062e-12
4.775073e-12
7.881125e-12
-1.003036e-11
4.924912e-12
6.038865e-14
9.004075e-13
1.802072e-13
2.692056e-12
6.827721e-12
4.863196e-12
-1.416206e-12
8.873931e-13
-4.207475e-12
2.651557e-12
6.599324e-12
7.331319e-13
-3.699999e-13
2.579505e-12
-1.098926e-12
7.758113e-12
-1.013354e-11
1.154866e-12
2.311193e-13
2.611708e-12
6.900686e-13
7.859598e-12
-8.493726e-12
7.960511e-13
1.127507e-12
2.66823e-12
3.356674e-12
8.03082e-12
-9.901373e-12
6.9562e-13
2.148487e-12
2.634457e-12
6.383608e-12
7.924498e-12
-1.025581e-11
5.004211e-12
6.327247e-13
7.771732e-13
1.885194e-12
2.330291e-12
7.172321e-12
4.271835e-12
5.467248e-13
1.623622e-12
4.533409e-12
4.158327e-12
-7.126019e-13
1.282908e-12
-2.129258e-12
3.815925e-12
4.095417e-12
3.983101e-12
-1.132493e-12
1.456351e-12
-3.384348e-12
4.343128e-12
3.225829e-12
3.556278e-12
-5.488077e-13
2.808459e-12
-1.642696e-12
8.416301e-12
1.320277e-12
3.641262e-12
-7.926242e-14
2.882296e-12
-2.384218e-13
8.640832e-12
1.626145e-12
3.783512e-12
2.136253e-13
2.856239e-12
6.38713e-13
8.561355e-12
2.202151e-12
3.832796e-12
5.106071e-13
2.758896e-12
1.527885e-12
8.26454e-12
2.438057e-12
4.098447e-12
-8.996448e-14
1.62529e-12
-2.664098e-13
4.84361e-12
3.700896e-12
4.081274e-12
-6.627356e-13
1.633611e-12
-1.978447e-12
4.869244e-12
3.616202e-12
3.77245e-12
-3.244278e-13
2.821266e-12
-9.682557e-13
8.451556e-12
2.191944e-12
3.757002e-12
-2.005323e-14
2.906977e-12
-6.011699e-14
8.713061e-12
2.098764e-12
3.785051e-12
2.580647e-13
2.898917e-12
7.702689e-13
8.688641e-12
2.211636e-12
3.826672e-12
5.509489e-13
2.805823e-12
1.646226e-12
8.404644e-12
2.400397e-12
4.092484e-12
-3.811916e-14
1.645906e-12
-1.135969e-13
4.905238e-12
3.658698e-12
4.087559e-12
-6.186612e-13
1.647339e-12
-1.84821e-12
4.909889e-12
3.632011e-12
3.795137e-12
-2.998173e-13
2.817293e-12
-8.954846e-13
8.439371e-12
2.27109e-12
3.767286e-12
-7.072235e-15
2.907291e-12
-2.12438e-14
8.713856e-12
2.127129e-12
3.78842e-12
2.745809e-13
2.906274e-12
8.200753e-13
8.710655e-12
2.182377e-12
3.822576e-12
5.768981e-13
2.814623e-12
1.723932e-12
8.431106e-12
2.352948e-12
4.100374e-12
-9.654377e-15
1.650057e-12
-2.842035e-14
4.917764e-12
3.657854e-12
4.098981e-12
-5.934762e-13
1.649375e-12
-1.772609e-12
4.915764e-12
3.649833e-12
3.814926e-12
-2.847616e-13
2.814556e-12
-8.500512e-13
8.430876e-12
2.321116e-12
3.782968e-12
-8.100276e-17
2.905584e-12
-2.395158e-16
8.70857e-12
2.161061e-12
3.782813e-12
2.846069e-13
2.905563e-12
8.4959e-13
8.708507e-12
2.160913e-12
3.81453e-12
5.932381e-13
2.8145e-12
1.771994e-12
8.430711e-12
2.320909e-12
4.098927e-12
9.188554e-15
1.649373e-12
2.706135e-14
4.91574e-12
3.6507e-12
4.100443e-12
-5.771295e-13
1.65008e-12
-1.724823e-12
4.917852e-12
3.657673e-12
3.812625e-12
-2.745366e-13
2.814657e-12
-8.2014e-13
8.431269e-12
2.341863e-12
3.779078e-12
6.721961e-15
2.906269e-12
2.024557e-14
8.71065e-12
2.17438e-12
3.766837e-12
2.996191e-13
2.907185e-12
8.950659e-13
8.713608e-12
2.125856e-12
3.794545e-12
6.186293e-13
2.817232e-12
1.848124e-12
8.439184e-12
2.270467e-12
4.087481e-12
3.780545e-14
1.647271e-12
1.125969e-13
4.909669e-12
3.633003e-12
4.088748e-12
-5.512463e-13
1.645884e-12
-1.647099e-12
4.905182e-12
3.654859e-12
3.822934e-12
-2.582431e-13
2.805848e-12
-7.708038e-13
8.404732e-12
2.396282e-12
3.784993e-12
1.994141e-14
2.898918e-12
5.976007e-14
8.688653e-12
2.211402e-12
3.756851e-12
3.242273e-13
2.906916e-12
9.676332e-13
8.712893e-12
2.098779e-12
3.7719e-12
6.626156e-13
2.821196e-12
1.977962e-12
8.451352e-12
2.191344e-12
4.080309e-12
9.039447e-14
1.633591e-12
2.674993e-13
4.869234e-12
3.613596e-12
4.098122e-12
-5.096659e-13
1.625167e-12
-1.524447e-12
4.843321e-12
3.698311e-12
3.83336e-12
-2.130789e-13
2.75878e-12
-6.354242e-13
8.263971e-12
2.438479e-12
3.78475e-12
7.908596e-14
2.856496e-12
2.391635e-13
8.561725e-12
2.208029e-12
3.640983e-12
5.486147e-13
2.882235e-12
1.64191e-12
8.640414e-12
1.628638e-12
3.560358e-12
1.131714e-12
2.808571e-12
3.380989e-12
8.416167e-12
1.329607e-12
3.985923e-12
7.116444e-13
1.456206e-12
2.125866e-12
4.342338e-12
3.228998e-12
4.157032e-12
1.282833e-12
3.815514e-12
4.091e-12
4.134041e-12
-2.481902e-13
1.560347e-12
-7.422553e-13
4.646913e-12
4.045299e-12
3.990578e-12
-3.648173e-13
1.800937e-12
-1.091813e-12
5.371391e-12
3.311865e-12
4.1378e-12
-1.588463e-13
2.764722e-12
-4.766507e-13
8.282398e-12
3.656544e-12
4.154815e-12
5.317842e-15
2.876593e-12
1.462799e-14
8.622872e-12
3.681501e-12
4.261888e-12
5.89636e-14
2.850595e-12
1.764499e-13
8.543662e-12
4.117764e-12
4.316048e-12
8.626546e-14
2.709166e-12
2.602081e-13
8.113847e-12
4.382986e-12
4.125807e-12
-6.890284e-14
1.880624e-12
-2.045607e-13
5.608548e-12
3.825641e-12
4.09547e-12
-1.924637e-13
1.893938e-12
-5.756059e-13
5.648563e-12
3.687199e-12
4.256306e-12
-1.004996e-13
2.770096e-12
-3.008039e-13
8.296965e-12
4.136091e-12
4.229751e-12
-7.364824e-15
2.894827e-12
-2.217244e-14
8.676083e-12
3.988096e-12
4.257711e-12
5.859694e-14
2.885143e-12
1.759215e-13
8.646801e-12
4.101456e-12
4.302959e-12
1.037021e-13
2.75252e-12
3.120731e-13
8.243588e-12
4.327869e-12
4.106248e-12
-3.668322e-14
1.898407e-12
-1.089867e-13
5.661581e-12
3.770965e-12
4.094495e-12
-1.641252e-13
1.901563e-12
-4.915841e-13
5.671094e-12
3.715884e-12
4.263674e-12
-8.729771e-14
2.763435e-12
-2.61454e-13
8.276679e-12
4.196238e-12
4.22808e-12
-5.235077e-16
2.893087e-12
-1.733999e-15
8.670781e-12
4.011432e-12
4.241244e-12
7.181115e-14
2.892818e-12
2.151141e-13
8.66986e-12
4.065191e-12
4.281206e-12
1.257357e-13
2.760944e-12
3.772845e-13
8.268935e-12
4.281205e-12
4.096874e-12
-9.220747e-15
1.903736e-12
-2.769145e-14
5.677489e-12
3.742126e-12
4.095618e-12
-1.427482e-13
1.903895e-12
-4.280499e-13
5.677995e-12
3.733741e-12
4.271371e-12
-7.991897e-14
2.762725e-12
-2.392512e-13
8.274227e-12
4.239221e-12
4.228232e-12
-4.628757e-17
2.89405e-12
-1.362766e-16
8.673402e-12
4.024289e-12
4.228146e-12
7.969627e-14
2.894012e-12
2.385763e-13
8.673286e-12
4.024652e-12
4.270955e-12
1.423159e-13
2.762659e-12
4.267831e-13
8.274023e-12
4.239438e-12
4.095349e-12
8.65691e-15
1.903883e-12
2.615528e-14
5.677964e-12
3.733758e-12
4.097252e-12
-1.263041e-13
1.90379e-12
-3.788618e-13
5.67762e-12
3.742494e-12
4.281613e-12
-7.222802e-14
2.7611e-12
-2.163707e-13
8.269396e-12
4.280996e-12
4.241071e-12
5.20886e-16
2.89286e-12
1.648108e-15
8.669996e-12
4.063705e-12
4.227591e-12
8.738746e-14
2.893134e-12
2.616065e-13
8.670938e-12
4.010306e-12
4.263271e-12
1.639855e-13
2.76336e-12
4.910336e-13
8.276435e-12
4.196589e-12
4.094119e-12
3.643292e-14
1.901532e-12
1.082143e-13
5.671018e-12
3.715591e-12
4.106515e-12
-1.03887e-13
1.898414e-12
-3.12598e-13
5.661618e-12
3.770886e-12
4.303471e-12
-5.871427e-14
2.75259e-12
-1.762819e-13
8.243812e-12
4.32807e-12
4.257833e-12
7.336341e-15
2.885153e-12
2.20149e-14
8.646843e-12
4.101345e-12
4.229179e-12
1.008307e-13
2.894766e-12
3.016666e-13
8.675909e-12
3.98651e-12
4.255389e-12
1.931286e-13
2.769996e-12
5.77341e-13
8.296685e-12
4.134388e-12
4.095056e-12
6.968889e-14
1.893833e-12
2.062646e-13
5.648264e-12
3.687095e-12
4.126059e-12
-8.529376e-14
1.880431e-12
-2.58133e-13
5.608051e-12
3.825724e-12
4.317005e-12
-5.81806e-14
2.708846e-12
-1.746317e-13
8.113013e-12
4.384463e-12
4.262959e-12
-4.786859e-15
2.850108e-12
-1.324678e-14
8.542179e-12
4.12112e-12
4.15457e-12
1.591696e-13
2.876374e-12
4.778105e-13
8.622091e-12
3.681834e-12
4.137393e-12
3.647713e-13
2.764176e-12
1.092297e-12
8.280634e-12
3.658439e-12
3.989494e-12
2.479941e-13
1.800587e-12
7.423035e-13
5.370286e-12
3.311541e-12
4.133845e-12
1.560058e-12
4.645943e-12
4.045718e-12
4.138902e-12
1.621261e-14
1.547433e-12
4.825306e-14
4.607912e-12
4.129658e-12
4.117807e-12
1.241979e-13
1.763284e-12
3.682019e-13
5.257496e-12
3.911756e-12
4.553226e-12
7.992241e-14
2.518525e-12
2.376642e-13
7.542627e-12
5.423535e-12
4.53286e-12
4.270103e-14
2.658511e-12
1.265098e-13
7.969006e-12
5.29787e-12
4.560474e-12
-2.64685e-14
2.633846e-12
-7.930269e-14
7.894367e-12
5.415576e-12
4.613826e-12
-1.501944e-13
2.472482e-12
-4.465591e-13
7.403622e-12
5.691308e-12
4.181147e-12
-4.619847e-14
1.786652e-12
-1.375713e-13
5.327597e-12
4.153113e-12
4.159231e-12
8.976443e-14
1.794224e-12
2.664168e-13
5.350363e-12
4.053448e-12
4.567646e-12
3.240171e-14
2.518319e-12
9.648292e-14
7.54229e-12
5.492266e-12
4.546892e-12
-6.774734e-15
2.662884e-12
-2.024855e-14
7.982141e-12
5.357567e-12
4.558725e-12
-5.929974e-14
2.653543e-12
-1.767783e-13
7.953836e-12
5.408217e-12
4.59709e-12
-1.48464e-13
2.499448e-12
-4.41264e-13
7.484983e-12
5.620186e-12
4.177149e-12
-2.749802e-14
1.793086e-12
-8.177601e-14
5.346825e-12
4.132424e-12
4.172956e-12
1.041884e-13
1.795701e-12
3.097668e-13
5.354611e-12
4.097895e-12
4.578458e-12
3.861023e-14
2.51212e-12
1.153101e-13
7.523227e-12
5.526364e-12
4.550609e-12
-2.472787e-16
2.660852e-12
-6.795675e-16
7.975681e-12
5.361698e-12
4.561373e-12
-5.084119e-14
2.660881e-12
-1.516636e-13
7.975706e-12
5.406502e-12
4.595119e-12
-1.366017e-13
2.511171e-12
-4.061948e-13
7.52015e-12
5.598435e-12
4.187649e-12
-1.202459e-14
1.798784e-12
-3.609207e-14
5.363743e-12
4.131293e-12
4.183666e-12
1.163653e-13
1.799995e-12
3.453941e-13
5.367368e-12
4.112811e-12
4.596292e-12
4.147978e-14
2.512218e-12
1.234379e-13
7.523283e-12
5.569191e-12
4.561675e-12
-3.934068e-17
2.663197e-12
-1.090138e-16
7.982528e-12
5.376101e-12
4.561471e-12
-4.166149e-14
2.663158e-12
-1.239486e-13
7.982411e-12
5.376182e-12
4.595697e-12
-1.166917e-13
2.512139e-12
-3.463252e-13
7.52304e-12
5.569055e-12
4.183266e-12
1.163718e-14
1.800006e-12
3.496919e-14
5.367396e-12
4.112543e-12
4.188095e-12
1.36314e-13
1.798808e-12
4.053566e-13
5.363791e-12
4.131537e-12
4.605784e-12
5.070115e-14
2.511309e-12
1.512698e-13
7.520521e-12
5.608745e-12
4.571707e-12
7.280422e-17
2.660955e-12
1.655213e-16
7.975896e-12
5.416911e-12
4.550465e-12
-3.885074e-14
2.660868e-12
-1.160432e-13
7.975687e-12
5.361928e-12
4.577779e-12
-1.04463e-13
2.512032e-12
-3.106201e-13
7.52294e-12
5.525847e-12
4.172547e-12
2.716817e-14
1.795698e-12
8.073389e-14
5.3546e-12
4.097616e-12
4.181406e-12
1.482537e-13
1.793094e-12
4.4058e-13
5.346851e-12
4.136331e-12
4.601727e-12
5.91835e-14
2.499533e-12
1.764029e-13
7.485252e-12
5.624461e-12
4.559079e-12
6.689366e-15
2.653564e-12
1.994813e-14
7.953912e-12
5.408461e-12
4.546888e-12
-3.263903e-14
2.66279e-12
-9.730372e-14
7.981879e-12
5.358169e-12
4.567286e-12
-9.031447e-14
2.518216e-12
-2.682169e-13
7.542021e-12
5.492863e-12
4.159029e-12
4.548182e-14
1.794116e-12
1.352208e-13
5.350113e-12
4.053744e-12
4.181538e-12
1.494844e-13
1.786577e-12
4.441809e-13
5.327518e-12
4.153106e-12
4.6142e-12
2.590849e-14
2.472425e-12
7.740548e-14
7.403709e-12
5.690281e-12
4.560194e-12
-4.320754e-14
2.63374e-12
-1.282468e-13
7.894353e-12
5.413677e-12
4.532146e-12
-8.0224e-14
2.658053e-12
-2.387064e-13
7.967958e-12
5.29673e-12
4.546779e-12
-1.239592e-13
2.518335e-12
-3.674648e-13
7.542401e-12
5.413774e-12
4.11213e-12
-1.583875e-14
1.763062e-12
-4.708334e-14
5.257099e-12
3.904933e-12
4.139064e-12
1.547245e-12
4.607544e-12
4.13038e-12
4.120707e-12
3.403294e-14
1.516284e-12
1.01415e-13
4.515918e-12
4.111282e-12
4.147899e-12
9.280286e-14
1.720025e-12
2.758782e-13
5.128987e-12
4.101944e-12
4.410063e-12
4.964373e-14
2.392404e-12
1.478533e-13
7.164551e-12
4.91617e-12
4.405825e-12
2.81608e-14
2.538369e-12
8.41498e-14
7.60881e-12
4.829716e-12
4.435349e-12
-1.821675e-14
2.516469e-12
-5.388234e-14
7.542618e-12
4.925124e-12
4.44484e-12
-1.003986e-13
2.357315e-12
-2.98451e-13
7.058486e-12
5.034552e-12
4.190888e-12
-3.765722e-14
1.719524e-12
-1.112335e-13
5.12791e-12
4.203358e-12
4.181401e-12
4.348351e-14
1.721332e-12
1.300338e-13
5.133504e-12
4.156997e-12
4.405176e-12
1.503612e-14
2.395127e-12
4.457085e-14
7.173298e-12
4.859631e-12
4.413137e-12
-1.97071e-15
2.540222e-12
-6.276172e-15
7.615058e-12
4.831067e-12
4.429534e-12
-3.718722e-14
2.531182e-12
-1.10998e-13
7.587362e-12
4.90073e-12
4.432406e-12
-1.005275e-13
2.379606e-12
-2.993755e-13
7.125842e-12
4.979923e-12
4.192722e-12
-3.288847e-14
1.720581e-12
-9.794668e-14
5.131027e-12
4.207094e-12
4.184439e-12
4.562452e-14
1.722306e-12
1.359111e-13
5.136173e-12
4.169018e-12
4.39432e-12
1.494579e-14
2.391405e-12
4.442431e-14
7.161461e-12
4.847577e-12
4.397457e-12
-1.838579e-15
2.543518e-12
-5.450352e-15
7.624284e-12
4.798724e-12
4.404699e-12
-2.71962e-14
2.544089e-12
-8.105044e-14
7.62588e-12
4.830132e-12
4.40219e-12
-6.973188e-14
2.39226e-12
-2.080172e-13
7.163814e-12
4.885493e-12
4.178469e-12
2.799358e-15
1.726421e-12
7.963338e-15
5.148399e-12
4.17783e-12
4.175916e-12
7.53375e-14
1.727123e-12
2.241146e-13
5.15052e-12
4.176613e-12
4.407297e-12
2.938405e-14
2.388755e-12
8.725019e-14
7.153359e-12
4.914082e-12
4.409235e-12
-2.755972e-17
2.542387e-12
-8.968847e-17
7.620833e-12
4.858274e-12
4.408949e-12
-2.95016e-14
2.542345e-12
-8.762221e-14
7.620702e-12
4.858192e-12
4.406522e-12
-7.555716e-14
2.388656e-12
-2.247992e-13
7.153059e-12
4.913672e-12
4.175621e-12
-3.070305e-15
1.727104e-12
-8.803978e-15
5.150459e-12
4.17656e-12
4.175333e-12
6.950434e-14
1.726394e-12
2.073074e-13
5.148313e-12
4.174709e-12
4.399323e-12
2.70773e-14
2.392323e-12
8.068293e-14
7.163997e-12
4.88248e-12
4.40135e-12
1.767941e-15
2.544079e-12
5.2541e-15
7.625845e-12
4.826832e-12
4.393684e-12
-1.520469e-14
2.543425e-12
-4.516637e-14
7.623995e-12
4.795796e-12
4.394667e-12
-4.616445e-14
2.391248e-12
-1.374915e-13
7.160977e-12
4.848952e-12
4.175103e-12
3.224493e-14
1.722255e-12
9.60681e-14
5.136018e-12
4.160127e-12
4.184202e-12
9.998018e-14
1.720576e-12
2.977792e-13
5.131015e-12
4.198323e-12
4.423941e-12
3.698486e-14
2.379671e-12
1.104079e-13
7.126053e-12
4.970517e-12
4.42061e-12
1.989261e-15
2.531205e-12
6.340218e-15
7.587444e-12
4.891145e-12
4.416494e-12
-1.500989e-14
2.540094e-12
-4.446531e-14
7.614691e-12
4.834484e-12
4.408087e-12
-4.337349e-14
2.395002e-12
-1.296307e-13
7.17295e-12
4.862332e-12
4.184661e-12
3.778046e-14
1.721224e-12
1.117059e-13
5.133239e-12
4.160207e-12
4.195051e-12
1.005549e-13
1.719512e-12
2.989905e-13
5.127958e-12
4.20733e-12
4.448961e-12
1.87781e-14
2.357301e-12
5.561647e-14
7.058572e-12
5.037476e-12
4.447411e-12
-2.752712e-14
2.516465e-12
-8.223818e-14
7.542753e-12
4.936868e-12
4.427032e-12
-4.956657e-14
2.538392e-12
-1.476717e-13
7.609063e-12
4.851361e-12
4.430065e-12
-9.282858e-14
2.392348e-12
-2.760598e-13
7.164561e-12
4.936295e-12
4.167857e-12
-3.411993e-14
1.719807e-12
-1.01754e-13
5.128506e-12
4.122142e-12
4.141854e-12
1.516169e-12
4.515746e-12
4.131892e-12
4.133168e-12
6.435648e-14
1.449882e-12
1.922928e-13
4.317591e-12
4.139203e-12
4.181173e-12
1.299133e-13
1.640573e-12
3.87542e-13
4.891436e-12
4.223471e-12
4.393432e-12
7.587257e-14
2.299565e-12
2.265833e-13
6.885979e-12
4.832969e-12
4.415827e-12
2.149207e-14
2.451609e-12
6.407108e-14
7.348831e-12
4.838322e-12
4.41676e-12
-4.431602e-14
2.438285e-12
-1.320354e-13
7.308429e-12
4.847054e-12
4.389424e-12
-1.180114e-13
2.280404e-12
-3.511872e-13
6.827875e-12
4.839186e-12
4.199057e-12
-6.166764e-14
1.642123e-12
-1.825596e-13
4.896332e-12
4.262006e-12
4.181687e-12
1.531207e-14
1.643315e-12
4.707234e-14
4.899958e-12
4.185595e-12
4.318511e-12
1.992822e-14
2.318603e-12
5.998381e-14
6.94338e-12
4.535516e-12
4.347355e-12
1.499128e-14
2.465694e-12
4.425178e-14
7.391416e-12
4.586731e-12
4.366702e-12
-2.799083e-14
2.46254e-12
-8.430827e-14
7.381269e-12
4.701351e-12
4.347091e-12
-7.923462e-14
2.314124e-12
-2.369562e-13
6.929102e-12
4.696489e-12
4.180246e-12
-1.860744e-14
1.647784e-12
-5.587499e-14
4.912977e-12
4.217214e-12
4.175504e-12
4.82947e-14
1.649416e-12
1.442428e-13
4.917826e-12
4.193728e-12
4.332155e-12
2.559582e-14
2.315899e-12
7.669216e-14
6.934553e-12
4.626607e-12
4.345789e-12
6.176042e-15
2.46964e-12
1.832327e-14
7.402544e-12
4.625899e-12
4.354802e-12
-2.401439e-14
2.471184e-12
-7.209463e-14
7.407068e-12
4.664024e-12
4.334797e-12
-5.887766e-14
2.320221e-12
-1.758895e-13
6.947291e-12
4.655113e-12
4.172373e-12
8.248351e-15
1.651628e-12
2.465996e-14
4.924419e-12
4.195806e-12
4.177588e-12
7.252358e-14
1.650634e-12
2.167799e-13
4.921518e-12
4.214471e-12
4.342165e-12
3.437376e-14
2.313176e-12
1.030792e-13
6.926447e-12
4.682779e-12
4.361821e-12
-4.904699e-17
2.466719e-12
-1.377327e-16
7.39393e-12
4.691942e-12
4.361528e-12
-3.457149e-14
2.466678e-12
-1.036615e-13
7.393802e-12
4.691951e-12
4.34141e-12
-7.293864e-14
2.313074e-12
-2.180281e-13
6.926134e-12
4.682705e-12
4.176923e-12
-8.742338e-15
1.650625e-12
-2.615422e-14
4.921499e-12
4.214014e-12
4.17579e-12
5.84622e-14
1.65166e-12
1.746337e-13
4.924524e-12
4.198793e-12
4.338601e-12
2.375347e-14
2.320314e-12
7.131268e-14
6.94759e-12
4.658326e-12
4.357949e-12
-6.235443e-15
2.471244e-12
-1.850371e-14
7.407254e-12
4.666355e-12
4.348453e-12
-2.569897e-14
2.469574e-12
-7.699457e-14
7.402356e-12
4.628581e-12
4.330341e-12
-4.858164e-14
2.315764e-12
-1.450811e-13
6.934158e-12
4.625255e-12
4.181897e-12
1.822391e-14
1.649395e-12
5.475714e-14
4.917781e-12
4.200301e-12
4.187609e-12
7.894706e-14
1.647766e-12
2.36127e-13
4.912934e-12
4.224327e-12
4.354923e-12
2.779532e-14
2.314215e-12
8.374939e-14
6.929388e-12
4.703969e-12
4.37415e-12
-1.517099e-14
2.462488e-12
-4.475163e-14
7.381131e-12
4.70898e-12
4.342807e-12
-2.008991e-14
2.465647e-12
-6.039035e-14
7.391288e-12
4.581851e-12
4.31335e-12
-1.555613e-14
2.318476e-12
-4.765314e-14
6.943013e-12
4.530552e-12
4.176921e-12
6.121742e-14
1.643343e-12
1.81418e-13
4.900053e-12
4.181039e-12
4.195195e-12
1.175868e-13
1.642179e-12
3.500908e-13
4.896511e-12
4.257977e-12
4.386343e-12
4.327753e-14
2.280556e-12
1.290373e-13
6.828345e-12
4.837629e-12
4.404795e-12
-2.2627e-14
2.438428e-12
-6.74071e-14
7.308867e-12
4.835126e-12
4.392955e-12
-7.553682e-14
2.451859e-12
-2.256001e-13
7.349544e-12
4.810672e-12
4.371086e-12
-1.295575e-13
2.299614e-12
-3.865096e-13
6.886135e-12
4.810425e-12
4.159146e-12
-6.414527e-14
1.64072e-12
-1.917088e-13
4.891893e-12
4.20096e-12
4.11314e-12
1.449975e-12
4.317897e-12
4.119281e-12
4.095369e-12
4.462211e-14
1.40601e-12
1.333908e-13
4.186707e-12
4.092862e-12
4.143498e-12
7.782257e-14
1.591043e-12
2.325188e-13
4.743518e-12
4.192298e-12
4.292254e-12
4.461624e-14
2.24932e-12
1.336347e-13
6.735483e-12
4.541628e-12
4.31984e-12
1.022177e-14
2.40601e-12
3.050496e-14
7.212594e-12
4.559204e-12
4.326648e-12
-3.759925e-14
2.397933e-12
-1.125419e-13
7.187977e-12
4.590145e-12
4.304245e-12
-9.269287e-14
2.24195e-12
-2.765233e-13
6.712946e-12
4.583149e-12
4.171121e-12
-7.022881e-14
1.597476e-12
-2.09202e-13
4.762973e-12
4.237154e-12
4.145021e-12
-2.318121e-14
1.603097e-12
-6.890089e-14
4.779648e-12
4.125029e-12
4.241513e-12
1.553866e-15
2.271516e-12
4.91274e-15
6.801948e-12
4.309134e-12
4.267733e-12
1.84952e-14
2.422893e-12
5.515234e-14
7.262894e-12
4.346022e-12
4.298524e-12
-5.359717e-15
2.427897e-12
-1.636646e-14
7.277508e-12
4.473806e-12
4.282162e-12
-3.452173e-14
2.278443e-12
-1.032927e-13
6.822231e-12
4.475957e-12
4.159103e-12
-3.2072e-15
1.610324e-12
-9.908755e-15
4.800995e-12
4.177703e-12
4.161105e-12
2.935281e-14
1.609942e-12
8.746135e-14
4.799859e-12
4.181699e-12
4.274475e-12
1.693746e-14
2.274091e-12
5.068667e-14
6.809237e-12
4.436562e-12
4.297252e-12
4.028029e-15
2.429749e-12
1.201952e-14
7.283089e-12
4.455371e-12
4.308243e-12
-1.490862e-14
2.433548e-12
-4.459514e-14
7.294355e-12
4.477574e-12
4.284432e-12
-3.40986e-14
2.281311e-12
-1.015068e-13
6.830611e-12
4.458025e-12
4.168537e-12
-7.360539e-16
1.610992e-12
-1.747372e-15
4.802915e-12
4.190284e-12
4.17008e-12
3.241857e-14
1.609308e-12
9.726123e-14
4.797939e-12
4.194642e-12
4.282417e-12
1.646307e-14
2.273971e-12
4.960256e-14
6.808934e-12
4.447593e-12
4.30841e-12
-7.201847e-17
2.426713e-12
-2.282654e-16
7.274171e-12
4.478001e-12
4.308041e-12
-1.663131e-14
2.426651e-12
-5.011528e-14
7.273982e-12
4.477748e-12
4.281477e-12
-3.270131e-14
2.273867e-12
-9.809876e-14
6.808616e-12
4.446972e-12
4.169485e-12
4.085915e-16
1.609315e-12
7.58012e-16
4.797963e-12
4.194162e-12
4.169033e-12
3.384204e-14
1.611023e-12
1.007153e-13
4.803018e-12
4.190582e-12
4.277346e-12
1.47625e-14
2.281406e-12
4.415322e-14
6.830918e-12
4.450585e-12
4.300564e-12
-4.080162e-15
2.43358e-12
-1.215114e-14
7.294466e-12
4.46966e-12
4.297014e-12
-1.722573e-14
2.429665e-12
-5.150496e-14
7.282849e-12
4.455883e-12
4.273648e-12
-2.99196e-14
2.273945e-12
-8.911522e-14
6.80881e-12
4.436607e-12
4.160537e-12
2.549592e-15
1.609906e-12
7.980321e-15
4.799763e-12
4.181456e-12
4.156359e-12
3.395253e-14
1.610244e-12
1.016201e-13
4.800767e-12
4.174891e-12
4.279642e-12
5.062808e-15
2.278474e-12
1.549569e-14
6.822342e-12
4.472806e-12
4.298868e-12
-1.872922e-14
2.427746e-12
-5.582461e-14
7.277075e-12
4.47425e-12
4.26742e-12
-1.753997e-15
2.422624e-12
-5.44143e-15
7.262085e-12
4.346243e-12
4.240212e-12
2.318722e-14
2.27137e-12
6.904614e-14
6.801517e-12
4.307223e-12
4.144296e-12
7.017369e-14
1.603174e-12
2.092162e-13
4.779876e-12
4.124304e-12
4.171478e-12
9.254167e-14
1.597623e-12
2.762187e-13
4.763403e-12
4.237591e-12
4.304475e-12
3.76143e-14
2.242316e-12
1.126465e-13
6.714012e-12
4.58238e-12
4.325847e-12
-1.011146e-14
2.398558e-12
-3.017915e-14
7.189821e-12
4.587715e-12
4.318319e-12
-4.456379e-14
2.406355e-12
-1.334925e-13
7.213524e-12
4.557658e-12
4.292504e-12
-7.772631e-14
2.249636e-12
-2.32257e-13
6.736407e-12
4.540997e-12
4.143857e-12
-4.444277e-14
1.591429e-12
-1.32891e-13
4.744649e-12
4.191732e-12
4.09455e-12
1.406254e-12
4.187422e-12
4.092133e-12
4.083134e-12
3.074688e-14
1.37412e-12
9.20836e-14
4.091208e-12
4.086552e-12
4.127787e-12
5.131664e-14
1.558465e-12
1.534109e-13
4.64587e-12
4.16411e-12
4.255275e-12
2.852432e-14
2.225089e-12
8.554842e-14
6.66264e-12
4.395981e-12
4.282463e-12
1.19219e-14
2.381712e-12
3.554709e-14
7.139658e-12
4.405391e-12
4.285156e-12
-1.223588e-14
2.37776e-12
-3.705158e-14
7.127524e-12
4.418208e-12
4.261951e-12
-4.352628e-14
2.22369e-12
-1.306149e-13
6.658219e-12
4.410239e-12
4.162743e-12
-2.651549e-14
1.56598e-12
-7.982796e-14
4.668654e-12
4.206281e-12
4.150083e-12
4.542688e-15
1.572686e-12
1.298192e-14
4.688602e-12
4.148315e-12
4.250049e-12
9.124649e-15
2.236661e-12
2.724598e-14
6.697355e-12
4.340374e-12
4.272761e-12
1.354715e-14
2.389799e-12
4.067112e-14
7.163654e-12
4.358573e-12
4.289325e-12
-5.199558e-15
2.399675e-12
-1.553471e-14
7.193217e-12
4.429821e-12
4.267003e-12
-3.179558e-14
2.25324e-12
-9.504964e-14
6.746968e-12
4.421777e-12
4.148056e-12
-1.078008e-14
1.582419e-12
-3.243996e-14
4.717535e-12
4.168907e-12
4.148687e-12
1.29723e-14
1.579763e-12
3.867907e-14
4.709556e-12
4.167877e-12
4.239987e-12
1.029949e-14
2.246834e-12
3.078474e-14
6.727374e-12
4.329733e-12
4.263387e-12
7.993805e-15
2.404177e-12
2.372718e-14
7.206536e-12
4.346999e-12
4.26999e-12
-6.111166e-15
2.412458e-12
-1.833934e-14
7.231123e-12
4.375289e-12
4.244836e-12
-2.417077e-14
2.259494e-12
-7.178098e-14
6.765055e-12
4.363833e-12
4.143523e-12
-3.618866e-15
1.585256e-12
-1.033501e-14
4.72573e-12
4.159265e-12
4.146968e-12
1.523736e-14
1.582475e-12
4.602851e-14
4.717518e-12
4.171031e-12
4.235397e-12
6.423042e-15
2.253642e-12
1.958989e-14
6.747868e-12
4.322897e-12
4.259367e-12
1.133683e-16
2.40556e-12
3.34346e-16
7.210812e-12
4.341987e-12
4.259254e-12
-6.493731e-15
2.40548e-12
-1.979523e-14
7.210569e-12
4.342795e-12
4.234607e-12
-1.558568e-14
2.253534e-12
-4.703927e-14
6.747546e-12
4.322928e-12
4.146412e-12
3.22102e-15
1.582481e-12
9.191853e-15
4.717539e-12
4.170608e-12
4.144108e-12
2.383521e-14
1.585245e-12
7.079299e-14
4.725706e-12
4.15982e-12
4.245642e-12
6.019594e-15
2.259623e-12
1.805553e-14
6.765459e-12
4.363847e-12
4.270438e-12
-8.062e-15
2.412475e-12
-2.392705e-14
7.231201e-12
4.375688e-12
4.263169e-12
-1.061213e-14
2.40412e-12
-3.168924e-14
7.206376e-12
4.347404e-12
4.239135e-12
-1.354543e-14
2.246715e-12
-4.037078e-14
6.727018e-12
4.329611e-12
4.148182e-12
1.010874e-14
1.579717e-12
3.044382e-14
4.709424e-12
4.167709e-12
4.148551e-12
3.116632e-14
1.582407e-12
9.319287e-14
4.717503e-12
4.169065e-12
4.26762e-12
5.070785e-15
2.253233e-12
1.517857e-14
6.746955e-12
4.42102e-12
4.288908e-12
-1.304422e-14
2.399742e-12
-3.916109e-14
7.19342e-12
4.426903e-12
4.27259e-12
-8.770519e-15
2.389418e-12
-2.614861e-14
7.162522e-12
4.359136e-12
4.249159e-12
-4.294989e-15
2.236443e-12
-1.214937e-14
6.696708e-12
4.339966e-12
4.149567e-12
2.687041e-14
1.572494e-12
8.100706e-14
4.688025e-12
4.148264e-12
4.163218e-12
4.408037e-14
1.565909e-12
1.323481e-13
4.668433e-12
4.206853e-12
4.263091e-12
1.254845e-14
2.223881e-12
3.802921e-14
6.658768e-12
4.412657e-12
4.285998e-12
-1.246772e-14
2.378234e-12
-3.713915e-14
7.128951e-12
4.422036e-12
4.282144e-12
-2.923564e-14
2.381031e-12
-8.763937e-14
7.137615e-12
4.408552e-12
4.252389e-12
-5.150466e-14
2.22503e-12
-1.53955e-13
6.662448e-12
4.392672e-12
4.125229e-12
-3.077646e-14
1.558701e-12
-9.216768e-14
4.646551e-12
4.161539e-12
4.082353e-12
1.374336e-12
4.091838e-12
4.085769e-12
4.069732e-12
1.893936e-14
1.355006e-12
5.672306e-14
4.034058e-12
4.070156e-12
4.110529e-12
3.157219e-14
1.538778e-12
9.432353e-14
4.586973e-12
4.131823e-12
4.218102e-12
1.880819e-14
2.21043e-12
5.629899e-14
6.618697e-12
4.300068e-12
4.246873e-12
9.549017e-15
2.366527e-12
2.845458e-14
7.094243e-12
4.320125e-12
4.247553e-12
-4.593374e-15
2.366652e-12
-1.395449e-14
7.094415e-12
4.323077e-12
4.225061e-12
-2.359929e-14
2.211119e-12
-7.074927e-14
6.620674e-12
4.319401e-12
4.13456e-12
-1.21762e-14
1.547356e-12
-3.676401e-14
4.612929e-12
4.156299e-12
4.132262e-12
7.10181e-15
1.550573e-12
2.08872e-14
4.62257e-12
4.140645e-12
4.218726e-12
1.074255e-14
2.213811e-12
3.200321e-14
6.628908e-12
4.276056e-12
4.252283e-12
6.205241e-15
2.367213e-12
1.873064e-14
7.096148e-12
4.333061e-12
4.256412e-12
-5.605297e-15
2.378812e-12
-1.680483e-14
7.131083e-12
4.354077e-12
4.218338e-12
-1.146944e-14
2.23686e-12
-3.500807e-14
6.698231e-12
4.285276e-12
4.132665e-12
3.16953e-15
1.563268e-12
8.357895e-15
4.660438e-12
4.146401e-12
4.137863e-12
1.587508e-14
1.561438e-12
4.661996e-14
4.654784e-12
4.154368e-12
4.226914e-12
1.47777e-14
2.222058e-12
4.379557e-14
6.652932e-12
4.304177e-12
4.243796e-12
1.980521e-14
2.383181e-12
5.892336e-14
7.143457e-12
4.291749e-12
4.262578e-12
8.252832e-16
2.396052e-12
2.613744e-15
7.182028e-12
4.367982e-12
4.245522e-12
-3.119775e-14
2.245251e-12
-9.228737e-14
6.722533e-12
4.382946e-12
4.142638e-12
-2.191066e-14
1.572802e-12
-6.464577e-14
4.688461e-12
4.152272e-12
4.139326e-12
-8.113616e-15
1.569802e-12
-2.366928e-14
4.679489e-12
4.136379e-12
4.222963e-12
-8.177029e-15
2.240184e-12
-2.402595e-14
6.707406e-12
4.263784e-12
4.241606e-12
4.693729e-17
2.391643e-12
1.40763e-16
7.168788e-12
4.259456e-12