/*--------------------------------*- C++ -*----------------------------------*\
| =========                 |                                                 |
| \\      /  F ield         | OpenFOAM: The Open Source CFD Toolbox           |
|  \\    /   O peration     | Version:  4.0                                   |
|   \\  /    A nd           | Web:      www.OpenFOAM.org                      |
|    \\/     M anipulation  |                                                 |
\*---------------------------------------------------------------------------*/
FoamFile
{
    version     2.0;
    format      ascii;
    class       surfaceScalarField;
    location    "60/fuel";
    object      phi;
}
// * * * * * * * * * * * * * * * * * * * * * * * * * * * * * * * * * * * * * //

dimensions      [1 0 -1 0 0 0 0];

internalField   nonuniform List<scalar> 
111448
(
1.202406e-12
3.88573e-11
-3.799138e-11
1.150951e-10
-1.133672e-10
-5.25494e-13
1.858726e-11
3.348842e-11
-1.115491e-11
9.924684e-11
-3.281336e-11
6.724884e-11
4.230465e-11
8.082138e-12
-1.484178e-11
2.440857e-11
-4.230008e-11
1.59443e-10
2.235879e-11
3.035321e-12
-1.525761e-11
9.552355e-12
-4.343733e-11
8.065234e-11
1.795986e-11
8.031096e-13
-1.366971e-11
2.344824e-12
-3.826825e-11
6.343563e-11
2.683727e-11
-4.840574e-12
-1.913348e-11
-1.388e-11
-5.462328e-11
9.768537e-11
3.018009e-11
6.930896e-12
-3.9883e-11
2.064545e-11
-1.174728e-10
1.131274e-10
3.329442e-11
1.030114e-11
-3.459536e-11
3.03191e-11
-1.013324e-10
1.249532e-10
3.812722e-11
-2.339133e-12
-2.342468e-11
-6.461583e-12
-6.721208e-11
1.4212e-10
1.760281e-11
-1.162659e-12
-1.670833e-11
-3.280858e-12
-4.668353e-11
6.11056e-11
2.019053e-11
-8.763985e-13
-1.840513e-11
-2.828089e-12
-5.180469e-11
7.154245e-11
3.567731e-11
-9.614027e-12
-2.48724e-11
-2.793083e-11
-7.138694e-11
1.32167e-10
3.31395e-11
5.135769e-13
-4.119319e-11
1.513926e-12
-1.210981e-10
1.247929e-10
3.256547e-11
8.515908e-12
-3.849509e-11
2.482916e-11
-1.130942e-10
1.223444e-10
3.608876e-11
-1.811677e-12
-2.369581e-11
-5.0186e-12
-6.802163e-11
1.339581e-10
1.756226e-11
-5.89e-13
-1.671148e-11
-1.732629e-12
-4.664358e-11
6.091986e-11
1.923702e-11
1.41572e-13
-1.789484e-11
2.042435e-13
-5.024646e-11
6.754661e-11
3.648739e-11
-9.504148e-12
-2.477461e-11
-2.765113e-11
-7.114913e-11
1.354919e-10
3.301671e-11
5.29569e-14
-4.049978e-11
8.302276e-14
-1.190205e-10
1.243031e-10
3.269959e-11
9.077104e-12
-3.965061e-11
2.648527e-11
-1.165078e-10
1.228051e-10
3.605376e-11
-8.601127e-13
-2.40507e-11
-2.104665e-12
-6.903716e-11
1.336809e-10
1.860171e-11
-5.686659e-15
-1.738321e-11
-2.24118e-14
-4.866877e-11
6.518823e-11
1.856801e-11
8.706388e-13
-1.737138e-11
2.131e-12
-4.863439e-11
6.504899e-11
3.606849e-11
-9.075367e-12
-2.405666e-11
-2.648812e-11
-6.905786e-11
1.337455e-10
3.273885e-11
-9.181079e-14
-3.964941e-11
-2.123829e-13
-1.165125e-10
1.229756e-10
3.300698e-11
9.481178e-12
-4.050592e-11
2.757326e-11
-1.190382e-10
1.242596e-10
3.65149e-11
-1.563172e-13
-2.481031e-11
-2.532628e-13
-7.125458e-11
1.35596e-10
1.928103e-11
5.748201e-13
-1.793938e-11
1.69026e-12
-5.037532e-11
6.771283e-11
1.762397e-11
1.784035e-12
-1.675972e-11
4.932924e-12
-4.678527e-11
6.116657e-11
3.601407e-11
-8.486512e-12
-2.367821e-11
-2.475874e-11
-6.796778e-11
1.336735e-10
3.250709e-11
-4.200812e-13
-3.850086e-11
-1.261622e-12
-1.131191e-10
1.221291e-10
3.322699e-11
9.619153e-12
-4.119239e-11
2.792804e-11
-1.21088e-10
1.251253e-10
3.570127e-11
8.425655e-13
-2.485748e-11
2.720135e-12
-7.13375e-11
1.322467e-10
2.015552e-11
1.140671e-12
-1.838204e-11
3.209673e-12
-5.173041e-11
7.13964e-11
1.752783e-11
2.27848e-12
-1.659473e-11
6.273657e-12
-4.634395e-11
6.08078e-11
3.811604e-11
-1.039901e-11
-2.337632e-11
-3.060615e-11
-6.707559e-11
1.420714e-10
3.321022e-11
-6.969384e-12
-3.457056e-11
-2.075132e-11
-1.012658e-10
1.246212e-10
3.017558e-11
4.850602e-12
-3.992699e-11
1.39116e-11
-1.175967e-10
1.131094e-10
2.6862e-11
-8.10279e-13
-1.914103e-11
-2.354687e-12
-5.464265e-11
9.777094e-11
1.794856e-11
-3.032333e-12
-1.366854e-11
-9.530948e-12
-3.826799e-11
6.339282e-11
2.237568e-11
-8.096622e-12
-1.525706e-11
-2.447366e-11
-4.344004e-11
8.075844e-11
4.231337e-11
-3.350303e-11
-1.485045e-11
-9.933339e-11
-4.233198e-11
1.595051e-10
1.857349e-11
-3.884918e-11
-1.116395e-11
-1.150896e-10
-3.283548e-11
6.716517e-11
1.200836e-12
-3.798179e-11
-1.13334e-10
-5.547235e-13
2.974604e-11
-2.033715e-11
-4.532413e-11
-6.155215e-11
-1.336871e-10
1.116181e-10
8.519121e-11
-1.037737e-10
-1.081665e-11
-3.064231e-10
-2.990017e-11
3.271489e-10
-3.701315e-11
-9.602853e-11
1.653503e-11
-2.83125e-10
5.226709e-11
-1.548784e-10
-9.618614e-11
-3.659913e-11
2.361153e-11
-1.078607e-10
7.271822e-11
-3.87606e-10
-8.723292e-11
1.510555e-11
2.396814e-11
4.4205e-11
7.361169e-11
-3.511786e-10
-6.671008e-11
4.321478e-11
2.157776e-11
1.276694e-10
6.669188e-11
-2.714896e-10
3.085064e-11
-4.134025e-12
-2.129684e-11
-1.232151e-11
-6.189107e-11
1.152598e-10
4.882083e-11
-7.152572e-11
-1.39278e-11
-2.117766e-10
-3.934075e-11
1.862842e-10
-5.851063e-11
-5.987016e-11
2.554709e-11
-1.774473e-10
7.89945e-11
-2.390464e-10
-9.95269e-11
-5.17744e-12
3.024614e-11
-1.535199e-11
9.257743e-11
-4.008832e-10
-9.286899e-11
4.287986e-11
2.852723e-11
1.267786e-10
8.739556e-11
-3.741998e-10
-6.254548e-11
5.875441e-11
2.391686e-11
1.738195e-10
7.405234e-11
-2.550256e-10
3.769358e-11
4.747498e-13
-1.851075e-11
1.226937e-12
-5.341243e-11
1.426004e-10
4.457428e-11
-6.525879e-11
-1.523894e-11
-1.929926e-10
-4.340578e-11
1.691054e-10
-5.956655e-11
-5.290225e-11
2.563222e-11
-1.561846e-10
7.920348e-11
-2.435996e-10
-9.722829e-11
-7.54565e-13
3.04905e-11
-2.147756e-12
9.329791e-11
-3.912067e-10
-9.432373e-11
4.796766e-11
2.982814e-11
1.418344e-10
9.127425e-11
-3.798266e-10
-6.127101e-11
6.1685e-11
2.489787e-11
1.825843e-10
7.701168e-11
-2.501818e-10
3.93559e-11
8.932123e-13
-1.696653e-11
2.656563e-12
-4.872334e-11
1.489865e-10
4.259145e-11
-6.303045e-11
-1.622169e-11
-1.864906e-10
-4.638758e-11
1.616184e-10
-5.955443e-11
-5.060123e-11
2.519262e-11
-1.496146e-10
7.789938e-11
-2.433669e-10
-9.599814e-11
3.076779e-14
3.010449e-11
9.02873e-14
9.216394e-11
-3.865358e-10
-9.596405e-11
5.063192e-11
3.011306e-11
1.496876e-10
9.218967e-11
-3.863854e-10
-5.950227e-11
6.300992e-11
2.51857e-11
1.86408e-10
7.788069e-11
-2.431613e-10
4.256602e-11
-8.79563e-13
-1.622924e-11
-2.628577e-12
-4.641797e-11
1.615082e-10
3.940887e-11
-6.170749e-11
-1.698947e-11
-1.826714e-10
-4.878879e-11
1.492023e-10
-6.121998e-11
-4.803827e-11
2.485922e-11
-1.420647e-10
7.69005e-11
-2.499818e-10
-9.431222e-11
6.62959e-13
2.979305e-11
1.872834e-12
9.11763e-11
-3.798014e-10
-9.71794e-11
5.278615e-11
3.041789e-11
1.558419e-10
9.309028e-11
-3.910241e-10
-5.957317e-11
6.523438e-11
2.556472e-11
1.929169e-10
7.900627e-11
-2.436222e-10
4.452405e-11
-4.502555e-13
-1.524343e-11
-1.153134e-12
-4.342862e-11
1.689036e-10
3.769818e-11
-5.871473e-11
-1.852991e-11
-1.736998e-10
-5.346303e-11
1.426199e-10
-6.249341e-11
-4.28794e-11
2.391875e-11
-1.267835e-10
7.406156e-11
-2.548088e-10
-9.290187e-11
5.228887e-12
2.853224e-11
1.548911e-11
8.741383e-11
-3.743187e-10
-9.967259e-11
6.003899e-11
3.038795e-11
1.779016e-10
9.29914e-11
-4.014204e-10
-5.833673e-11
7.148178e-11
2.563425e-11
2.116202e-10
7.924826e-11
-2.383792e-10
4.896421e-11
3.943077e-12
-1.389947e-11
1.175814e-11
-3.925862e-11
1.86819e-10
3.07049e-11
-4.324958e-11
-2.135124e-11
-1.277751e-10
-6.205237e-11
1.146938e-10
-6.678077e-11
-1.505612e-11
2.155663e-11
-4.406874e-11
6.66327e-11
-2.717624e-10
-8.722884e-11
3.666107e-11
2.395265e-11
1.080443e-10
7.356252e-11
-3.511724e-10
-9.616036e-11
9.605595e-11
2.362079e-11
2.832236e-10
7.273978e-11
-3.875195e-10
-3.685821e-11
1.036488e-10
1.652375e-11
3.060676e-10
5.22247e-11
-1.542589e-10
8.509841e-11
2.027903e-11
-1.079954e-11
6.137227e-11
-2.985298e-11
3.268113e-10
2.966738e-11
-4.529407e-11
-1.335983e-10
1.11304e-10
1.456698e-12
-2.536191e-11
-1.933479e-11
-7.662083e-11
-5.627191e-11
6.623271e-13
3.502734e-11
-7.949509e-11
1.03886e-11
-2.35079e-10
3.333558e-11
1.302497e-10
-6.360271e-11
-4.527132e-11
4.80279e-11
-1.34237e-10
1.450732e-10
-2.572508e-10
-5.506714e-11
-1.093217e-11
4.644866e-11
-3.228343e-11
1.398506e-10
-2.24153e-10
-1.869426e-11
-7.84564e-12
4.16764e-11
-2.306595e-11
1.251519e-10
-7.945194e-11
-3.371985e-11
4.739478e-12
4.481744e-11
1.386056e-11
1.346251e-10
-1.385796e-10
-1.398909e-11
-1.083642e-11
1.035627e-11
-3.284448e-11
3.15112e-11
-6.068631e-11
-9.22089e-12
-3.078021e-11
1.733357e-11
-9.169231e-11
5.25282e-11
-4.224202e-11
-4.563459e-11
-1.165949e-11
5.417387e-11
-3.527039e-11
1.627419e-10
-1.858039e-10
-2.940963e-11
-3.194663e-12
5.330114e-11
-9.478046e-12
1.598169e-10
-1.224415e-10
-2.327615e-11
-7.56685e-13
5.147471e-11
-2.043815e-12
1.543268e-10
-9.764166e-11
-4.220745e-11
1.527125e-11
5.220924e-11
4.526161e-11
1.567242e-10
-1.721848e-10
-1.611476e-11
-9.248035e-13
1.589486e-11
-2.720973e-12
4.787421e-11
-6.941881e-11
-1.07529e-11
-2.139247e-11
1.807648e-11
-6.357463e-11
5.482337e-11
-4.81284e-11
-4.024039e-11
-6.919022e-12
5.351164e-11
-2.097306e-11
1.607792e-10
-1.644176e-10
-2.517131e-11
-1.769975e-12
5.262288e-11
-5.25886e-12
1.578713e-10
-1.054589e-10
-2.391056e-11
1.541795e-12
5.253669e-11
4.69587e-12
1.575392e-10
-1.001302e-10
-4.230786e-11
1.757254e-11
5.328817e-11
5.200533e-11
1.600328e-10
-1.726384e-10
-1.483585e-11
1.01158e-13
1.743602e-11
3.218165e-13
5.258978e-11
-6.446546e-11
-1.266697e-11
-1.91333e-11
1.777443e-11
-5.681893e-11
5.380265e-11
-5.571644e-11
-4.073683e-11
-4.257758e-12
5.316631e-11
-1.297859e-11
1.597255e-10
-1.664033e-10
-2.442941e-11
-1.106934e-14
5.239701e-11
-4.156993e-14
1.572048e-10
-1.024073e-10
-2.445973e-11
4.270713e-12
5.240081e-11
1.299192e-11
1.572205e-10
-1.02524e-10
-4.075266e-11
1.915743e-11
5.316404e-11
5.68682e-11
1.597213e-10
-1.664696e-10
-1.265303e-11
-1.146511e-13
1.779057e-11
-3.771079e-13
5.384834e-11
-5.567403e-11
-1.481915e-11
-1.758024e-11
1.73906e-11
-5.204807e-11
5.245855e-11
-6.439553e-11
-4.233194e-11
-1.543071e-12
5.32672e-11
-4.716513e-12
1.59972e-10
-1.727349e-10
-2.394353e-11
1.792913e-12
5.251038e-11
5.313042e-12
1.574641e-10
-1.002609e-10
-2.513258e-11
6.911293e-12
5.254222e-11
2.094197e-11
1.57635e-10
-1.053063e-10
-4.007498e-11
2.126733e-11
5.339609e-11
6.321048e-11
1.604365e-10
-1.637737e-10
-1.078331e-11
8.364579e-13
1.806555e-11
2.452779e-12
5.47837e-11
-4.823793e-11
-1.624976e-11
-1.523137e-11
1.588252e-11
-4.516163e-11
4.783705e-11
-6.993542e-11
-4.219519e-11
8.050837e-13
5.219034e-11
2.183683e-12
1.566679e-10
-1.721468e-10
-2.324382e-11
3.238821e-12
5.14516e-11
9.608724e-12
1.542535e-10
-9.750857e-11
-2.943552e-11
1.179265e-11
5.337982e-11
3.566377e-11
1.600516e-10
-1.225508e-10
-4.563938e-11
3.091641e-11
5.426278e-11
9.208426e-11
1.630098e-10
-1.858214e-10
-8.996825e-12
1.076248e-11
1.734794e-11
3.261645e-11
5.257813e-11
-4.136576e-11
-1.402614e-11
-4.779971e-12
1.030548e-11
-1.398823e-11
3.135667e-11
-6.083049e-11
-3.381188e-11
7.902419e-12
4.479112e-11
2.32268e-11
1.345485e-10
-1.389427e-10
-1.864736e-11
1.094726e-11
4.165572e-11
3.232159e-11
1.25089e-10
-7.92686e-11
-5.505521e-11
4.526549e-11
4.646694e-11
1.342285e-10
1.399002e-10
-2.241226e-10
-6.362941e-11
7.949534e-11
4.803727e-11
2.350918e-10
1.450956e-10
-2.573635e-10
3.501292e-11
2.537518e-11
1.040714e-11
7.666225e-11
3.338289e-11
1.302066e-10
1.486552e-12
-1.932131e-11
-5.623653e-11
7.869905e-13
-2.061529e-11
-7.948869e-12
1.131449e-11
-2.466708e-11
3.440383e-11
-8.662394e-11
-6.822614e-12
-2.405594e-11
3.541407e-11
-7.268315e-11
1.070085e-10
-3.24795e-11
-3.259451e-11
-5.543531e-12
6.422043e-11
-1.725306e-11
1.927682e-10
-1.357196e-10
-1.736266e-11
4.986691e-12
5.538476e-11
1.492343e-11
1.661422e-10
-7.583077e-11
3.678183e-12
-2.129437e-12
4.720643e-11
-5.954685e-12
1.412844e-10
8.423802e-12
-1.157724e-11
3.056256e-12
5.330772e-11
9.12089e-12
1.596839e-10
-5.171156e-11
-8.619637e-12
-2.709744e-12
2.68239e-11
-8.829412e-12
8.03606e-11
-3.951874e-11
-5.502582e-12
-1.230326e-11
3.451979e-11
-3.701244e-11
1.0341e-10
-2.820139e-11
-1.539221e-11
-2.625853e-12
6.199454e-11
-7.826697e-12
1.85745e-10
-6.758104e-11
-2.00352e-12
-1.651229e-12
5.64312e-11
-4.875368e-12
1.689683e-10
-1.410624e-11
1.774896e-12
-4.375056e-12
5.452345e-11
-1.299208e-11
1.632229e-10
9.95535e-13
-1.267438e-11
2.738067e-12
5.987571e-11
8.4038e-12
1.79269e-10
-5.661506e-11
-8.595932e-12
-3.371795e-12
3.268778e-11
-9.902232e-12
9.775968e-11
-4.017537e-11
-9.406129e-12
-8.16808e-12
3.436873e-11
-2.470832e-11
1.03061e-10
-4.283766e-11
-1.45657e-11
8.835114e-13
6.113153e-11
2.175237e-12
1.832e-10
-6.387013e-11
9.049441e-13
-6.517237e-13
5.5354e-11
-2.088392e-12
1.656967e-10
-2.656849e-12
1.387492e-12
-2.6882e-12
5.528611e-11
-7.96975e-12
1.654797e-10
-6.717302e-13
-1.332941e-11
5.003001e-12
6.103242e-11
1.516698e-11
1.827602e-10
-5.919355e-11
-8.449236e-12
-1.230321e-12
3.420732e-11
-3.507564e-12
1.023585e-10
-3.954342e-11
-9.55884e-12
-6.091149e-12
3.428333e-11
-1.83504e-11
1.027137e-10
-4.362708e-11
-1.378847e-11
2.143992e-12
6.082534e-11
6.133969e-12
1.822425e-10
-6.078992e-11
1.489689e-12
7.963883e-15
5.514394e-11
1.956011e-14
1.650326e-10
-2.236905e-13
1.440103e-12
-2.062107e-12
5.513137e-11
-5.907685e-12
1.649994e-10
-4.115511e-13
-1.374052e-11
6.124135e-12
6.082397e-11
1.841639e-11
1.822395e-10
-6.058278e-11
-9.465522e-12
1.148418e-12
3.432101e-11
3.234085e-12
1.028297e-10
-4.326455e-11
-8.551392e-12
-4.998641e-12
3.417782e-11
-1.516565e-11
1.022717e-10
-3.996484e-11
-1.341555e-11
2.755094e-12
6.103516e-11
8.160495e-12
1.827702e-10
-5.953991e-11
1.367981e-12
7.273797e-13
5.527064e-11
2.300911e-12
1.654383e-10
-7.465983e-13
8.719171e-13
-8.168867e-13
5.53154e-11
-1.9974e-12
1.655804e-10
-2.77509e-12
-1.451864e-11
8.174073e-12
6.102952e-11
2.471166e-11
1.828919e-10
-6.368315e-11
-9.365343e-12
3.343067e-12
3.435168e-11
9.8117e-12
1.029998e-10
-4.268143e-11
-8.575067e-12
-2.771287e-12
3.265925e-11
-8.512774e-12
9.767649e-11
-4.009003e-11
-1.266426e-11
4.340552e-12
5.984813e-11
1.288699e-11
1.791889e-10
-5.658506e-11
1.799692e-12
1.606524e-12
5.448573e-11
4.747782e-12
1.631096e-10
1.082827e-12
-2.004941e-12
2.641398e-12
5.645106e-11
7.889965e-12
1.690322e-10
-1.412767e-11
-1.544e-11
1.239003e-11
6.206008e-11
3.727325e-11
1.859471e-10
-6.776064e-11
-5.429389e-12
2.72017e-12
3.453731e-11
8.842937e-12
1.03467e-10
-2.788791e-11
-8.628767e-12
-3.053736e-12
2.679019e-11
-9.116892e-12
8.025805e-11
-3.957031e-11
-1.163594e-11
2.174776e-12
5.329738e-11
6.098465e-12
1.596517e-10
-5.19544e-11
3.700975e-12
-4.966985e-12
4.718865e-11
-1.486512e-11
1.412296e-10
8.52399e-12
-1.738199e-11
5.584517e-12
5.540117e-11
1.737246e-11
1.661901e-10
-7.590948e-11
-3.260747e-11
2.411852e-11
6.422112e-11
7.287018e-11
1.927683e-10
-1.357779e-10
-6.766034e-12
7.975408e-12
3.541201e-11
2.474648e-11
1.069986e-10
-3.2258e-11
-2.056819e-11
1.130748e-11
3.438022e-11
-8.643847e-11
-1.161919e-11
-1.766625e-13
2.51897e-11
-1.237951e-12
7.536522e-11
-5.134263e-11
-7.053557e-12
-3.711965e-12
4.809451e-11
-1.221224e-11
1.443049e-10
-3.337563e-11
-7.484169e-12
4.615887e-12
6.548139e-11
1.316845e-11
1.963326e-10
-3.642923e-11
9.338844e-13
4.951702e-12
5.621251e-11
1.484171e-11
1.684061e-10
-3.003298e-12
1.256721e-11
-5.41995e-12
4.709663e-11
-1.595646e-11
1.408688e-10
4.378102e-11
2.392755e-12
-5.031463e-12
5.261805e-11
-1.488968e-11
1.575303e-10
3.479513e-12
-6.127728e-12
-7.195943e-13
3.071739e-11
-2.404144e-12
9.165963e-11
-2.991229e-11
-3.610815e-12
2.12506e-13
3.928346e-11
1.944994e-13
1.175825e-10
-2.038191e-11
1.361333e-12
2.812725e-12
6.01318e-11
8.234398e-12
1.801822e-10
-1.115825e-12
7.967323e-12
-1.025626e-12
5.439619e-11
-3.096963e-12
1.629346e-10
2.533237e-11
1.051447e-11
-7.389096e-12
5.246503e-11
-2.209434e-11
1.571535e-10
3.558127e-11
3.304418e-12
-6.646456e-12
5.792557e-11
-1.968008e-11
1.734683e-10
6.690855e-12
-5.778868e-12
-2.679533e-12
3.658201e-11
-8.097799e-12
1.093049e-10
-2.890636e-11
-7.710727e-12
3.739179e-12
3.774593e-11
1.0628e-11
1.128818e-10
-3.625734e-11
9.996708e-13
6.743636e-12
5.922585e-11
1.96991e-11
1.774549e-10
-2.326342e-12
1.033589e-11
2.890245e-13
5.356607e-11
6.939648e-13
1.603372e-10
3.470051e-11
1.025339e-11
-6.040821e-12
5.345555e-11
-1.803539e-11
1.600205e-10
3.444202e-11
3.0465e-12
-5.21734e-12
5.926033e-11
-1.5339e-11
1.774128e-10
5.697527e-12
-5.585918e-12
-1.447945e-12
3.81072e-11
-4.35407e-12
1.138803e-10
-2.809262e-11
-7.389188e-12
4.548823e-12
3.776003e-11
1.306344e-11
1.128321e-10
-3.492509e-11
1.257245e-12
7.012642e-12
5.920224e-11
2.054822e-11
1.773206e-10
-1.305601e-12
1.064382e-11
7.874049e-15
5.359777e-11
1.964079e-14
1.60327e-10
3.587804e-11
1.065871e-11
-7.000002e-12
5.357344e-11
-2.051044e-11
1.602564e-10
3.593171e-11
1.284888e-12
-4.551292e-12
5.918832e-11
-1.307911e-11
1.77282e-10
-1.188867e-12
-7.373093e-12
1.446321e-12
3.778086e-11
4.321989e-12
1.128975e-10
-3.484204e-11
-5.622776e-12
5.238857e-12
3.809142e-11
1.537918e-11
1.138324e-10
-2.824067e-11
3.01795e-12
6.094338e-12
5.925963e-11
1.818505e-11
1.774129e-10
5.569338e-12
1.023288e-11
-2.15698e-13
5.34408e-11
-4.818438e-13
1.599815e-10
3.435657e-11
1.031633e-11
-6.664052e-12
5.354074e-11
-1.947722e-11
1.602606e-10
3.463147e-11
1.030224e-12
-3.748996e-12
5.918267e-11
-1.067164e-11
1.773187e-10
-2.202166e-12
-7.640052e-12
2.562468e-12
3.776542e-11
7.744784e-12
1.129332e-10
-3.598995e-11
-5.814204e-12
6.592659e-12
3.65256e-11
1.951252e-11
1.091387e-10
-2.904412e-11
3.250945e-12
7.3803e-12
5.790651e-11
2.205864e-11
1.734142e-10
6.479487e-12
1.052098e-11
9.951146e-13
5.244251e-11
3.001274e-12
1.570829e-10
3.560502e-11
7.949303e-12
-2.815529e-12
5.44064e-11
-8.243893e-12
1.629656e-10
2.526102e-11
1.327715e-12
-1.544579e-13
6.017015e-11
-2.204947e-14
1.802995e-10
-1.246562e-12
-3.637763e-12
7.880886e-13
3.931751e-11
2.598721e-12
1.176884e-10
-2.047995e-11
-6.130226e-12
5.069162e-12
3.071702e-11
1.499005e-11
9.165549e-11
-2.9919e-11
2.402995e-12
5.452243e-12
5.260291e-11
1.605098e-11
1.574787e-10
3.515033e-12
1.255766e-11
-4.916508e-12
4.70855e-11
-1.473151e-11
1.408344e-10
4.373527e-11
9.404314e-13
-4.583817e-12
5.622561e-11
-1.306869e-11
1.684445e-10
-2.976809e-12
-7.469484e-12
3.731521e-12
6.548e-11
1.227325e-11
1.963281e-10
-3.637124e-11
-7.037666e-12
1.829302e-13
4.808995e-11
1.257546e-12
1.442897e-10
-3.331306e-11
-1.16184e-11
2.518826e-11
7.535966e-11
-5.134029e-11
-7.78429e-12
4.033284e-12
3.101587e-11
1.155235e-11
9.259323e-11
-3.656464e-11
-5.709033e-12
7.623813e-12
5.230067e-11
2.177455e-11
1.567129e-10
-2.833926e-11
9.720744e-13
1.087046e-11
6.33611e-11
3.193774e-11
1.899776e-10
-2.836097e-12
5.858105e-12
7.474694e-12
5.584223e-11
2.201327e-11
1.673218e-10
1.686688e-11
1.001564e-11
-9.862977e-14
4.67348e-11
-4.885995e-13
1.397874e-10
3.359888e-11
3.872799e-12
-1.133446e-12
5.186622e-11
-3.325908e-12
1.552729e-10
8.9675e-12
-5.091902e-14
-9.810434e-13
3.26884e-11
-2.786685e-12
9.75094e-11
-6.439906e-12
-1.584082e-12
6.261528e-13
4.134101e-11
1.544042e-12
1.237171e-10
-1.204943e-11
1.892139e-12
2.905187e-12
5.80535e-11
8.427467e-12
1.739215e-10
1.269407e-12
6.052707e-12
4.593376e-13
5.28775e-11
1.215098e-12
1.583838e-10
1.781594e-11
7.44505e-12
-3.017272e-12
5.058273e-11
-9.15906e-12
1.515519e-10
2.342079e-11
4.377894e-12
-3.08265e-12
5.570334e-11
-9.317831e-12
1.668686e-10
1.113636e-11
-9.726014e-13
-1.373378e-12
3.792225e-11
-4.395398e-12
1.13339e-10
-9.929152e-12
-2.749232e-12
2.494876e-12
3.870699e-11
7.211193e-12
1.156813e-10
-1.715531e-11
2.349476e-12
4.573199e-12
5.689005e-11
1.368966e-11
1.704109e-10
2.915077e-12
7.159821e-12
8.47802e-13
5.221851e-11
2.597097e-12
1.562933e-10
2.229624e-11
7.411108e-12
-2.972877e-12
5.195159e-11
-8.818804e-12
1.555587e-10
2.328878e-11
3.773284e-12
-2.592565e-12
5.719792e-11
-7.763249e-12
1.713528e-10
8.777673e-12
-1.056982e-12
-5.363926e-13
3.918593e-11
-1.929339e-12
1.171838e-10
-1.019442e-11
-2.275065e-12
2.680849e-12
3.889689e-11
7.711465e-12
1.161555e-10
-1.523923e-11
2.339233e-12
4.509873e-12
5.712552e-11
1.341662e-11
1.710602e-10
2.894453e-12
7.476889e-12
4.262373e-15
5.271306e-11
6.685463e-15
1.577064e-10
2.350742e-11
7.488347e-12
-4.508194e-12
5.268411e-11
-1.342243e-11
1.576181e-10
2.355576e-11
2.323181e-12
-2.662094e-12
5.711056e-11
-7.670319e-12
1.710131e-10
2.839948e-12
-2.307271e-12
5.859044e-13
3.891918e-11
2.058663e-12
1.162216e-10
-1.536037e-11
-1.027231e-12
2.629217e-12
3.915328e-11
7.858371e-12
1.170871e-10
-1.008157e-11
3.822502e-12
2.98108e-12
5.71765e-11
8.838809e-12
1.7129e-10
8.964996e-12
7.418295e-12
-8.156901e-13
5.190579e-11
-2.500487e-12
1.554255e-10
2.331359e-11
7.135614e-12
-4.520678e-12
5.2197e-11
-1.353423e-11
1.562295e-10
2.220044e-11
2.403171e-12
-2.540861e-12
5.689152e-11
-7.358348e-12
1.704121e-10
3.133934e-12
-2.704761e-12
1.261027e-12
3.874844e-11
4.036714e-12
1.158081e-10
-1.697465e-11
-1.075928e-12
3.064756e-12
3.787486e-11
9.247036e-12
1.131945e-10
-1.034208e-11
4.304443e-12
3.067457e-12
5.56898e-11
9.298446e-12
1.668288e-10
1.083843e-11
7.445809e-12
-4.342125e-13
5.058462e-11
-1.150851e-12
1.515542e-10
2.342382e-11
6.08359e-12
-2.915296e-12
5.289181e-11
-8.458559e-12
1.584197e-10
1.793719e-11
1.871792e-12
-6.181606e-13
5.809386e-11
-1.510797e-12
1.740385e-10
1.18509e-12
-1.657216e-12
1.046399e-12
4.139062e-11
2.98676e-12
1.238647e-10
-1.233106e-11
-7.142461e-14
1.206872e-12
3.270023e-11
3.535613e-12
9.754472e-11
-6.509506e-12
3.910325e-12
1.170326e-13
5.18683e-11
5.367194e-13
1.552729e-10
9.115004e-12
1.003851e-11
-7.478481e-12
4.672278e-11
-2.202381e-11
1.39751e-10
3.368253e-11
5.860309e-12
-1.086068e-11
5.583902e-11
-3.190846e-11
1.673125e-10
1.687697e-11
9.785051e-13
-7.617075e-12
6.335577e-11
-2.175288e-11
1.899607e-10
-2.809624e-12
-5.714854e-12
-4.029392e-12
5.230422e-11
-1.153907e-11
1.567218e-10
-2.836084e-11
-7.789631e-12
3.102312e-11
9.26136e-11
-3.658266e-11
-3.85321e-12
3.527768e-12
3.34117e-11
1.030269e-11
9.961663e-11
-2.117931e-11
-3.513954e-12
8.432859e-12
5.299271e-11
2.447122e-11
1.587162e-10
-1.968577e-11
3.152495e-12
1.029299e-11
6.044041e-11
3.03964e-11
1.812184e-10
5.986511e-12
6.395174e-12
7.625176e-12
5.420133e-11
2.253612e-11
1.624732e-10
1.910409e-11
8.513163e-12
1.682807e-12
4.623927e-11
4.779996e-12
1.382982e-10
2.775844e-11
5.993744e-12
-7.43973e-13
5.037942e-11
-2.382659e-12
1.508084e-10
1.762088e-11
1.103354e-12
-3.213999e-13
3.322984e-11
-1.040417e-12
9.907097e-11
-1.800469e-12
-1.414648e-12
3.434984e-12
4.107546e-11
9.941044e-12
1.228355e-10
-1.151451e-11
3.286896e-12
4.551971e-12
5.573622e-11
1.340922e-11
1.669791e-10
6.761108e-12
6.628598e-12
1.822955e-12
5.106025e-11
5.270908e-12
1.529912e-10
2.015947e-11
6.918989e-12
-1.136892e-12
4.870399e-11
-3.501633e-12
1.458685e-10
2.137494e-11
5.124463e-12
-1.858414e-12
5.338486e-11
-5.67695e-12
1.598843e-10
1.428407e-11
1.130535e-12
4.85679e-14
3.695668e-11
-1.593306e-13
1.104283e-10
-1.476385e-12
1.933464e-13
2.817727e-12
3.781946e-11
8.264872e-12
1.129011e-10
-5.450649e-12
4.033605e-12
3.400261e-12
5.435992e-11
1.030006e-11
1.627697e-10
9.639602e-12
6.573149e-12
4.096784e-13
5.071735e-11
1.398116e-12
1.518037e-10
1.99647e-11
6.758811e-12
-2.439852e-12
5.012364e-11
-7.152039e-12
1.501043e-10
2.076337e-11
4.047423e-12
-1.727201e-12
5.452382e-11
-5.235519e-12
1.634338e-10
1.004993e-11
5.059963e-13
1.224294e-12
3.78021e-11
3.225667e-12
1.1303e-10
-3.801452e-12
7.789718e-13
3.263452e-12
3.81531e-11
9.536931e-12
1.13871e-10
-3.247788e-12
4.484752e-12
3.389906e-12
5.460023e-11
1.029034e-11
1.634755e-10
1.131603e-11
6.894032e-12
3.915477e-14
5.125121e-11
1.065771e-13
1.534937e-10
2.129055e-11
6.916692e-12
-3.35645e-12
5.124445e-11
-1.021117e-11
1.534664e-10
2.138613e-11
4.492098e-12
-3.266582e-12
5.461448e-11
-9.562496e-12
1.635106e-10
1.134589e-11
7.762089e-13
-1.229967e-12
3.818069e-11
-3.250609e-12
1.139511e-10
-3.265139e-12
5.195546e-13
1.722328e-12
3.775507e-11
5.214282e-12
1.128893e-10
-3.747542e-12
4.052213e-12
2.42946e-12
5.450279e-11
7.111938e-12
1.633708e-10
1.007371e-11
6.77125e-12
-4.226393e-13
5.006764e-11
-1.432375e-12
1.499345e-10
2.080662e-11
6.565679e-12
-3.409804e-12
5.069988e-11
-1.032583e-11
1.517501e-10
1.993852e-11
4.042807e-12
-2.845616e-12
5.437047e-11
-8.368691e-12
1.628027e-10
9.695067e-12
1.629108e-13
-3.162688e-14
3.784648e-11
1.770987e-13
1.129871e-10
-5.561928e-12
1.120237e-12
1.879682e-12
3.691522e-11
5.72817e-12
1.102988e-10
-1.535091e-12
5.116247e-12
1.172461e-12
5.336518e-11
3.610948e-12
1.598259e-10
1.423642e-11
6.915393e-12
-1.784714e-12
4.870671e-11
-5.158051e-12
1.458793e-10
2.135927e-11
6.646649e-12
-4.566544e-12
5.110926e-11
-1.346328e-11
1.531349e-10
2.023669e-11
3.263412e-12
-3.443015e-12
5.57935e-11
-9.976675e-12
1.671476e-10
6.667729e-12
-1.460145e-12
3.468676e-13
4.113705e-11
1.117607e-12
1.230163e-10
-1.170606e-11
1.105952e-12
8.017147e-13
3.320676e-11
2.560941e-12
9.900434e-11
-1.79701e-12
6.001434e-12
-1.637338e-12
5.038601e-11
-4.649961e-12
1.508267e-10
1.765857e-11
8.540439e-12
-7.608371e-12
4.622857e-11
-2.249309e-11
1.382632e-10
2.787134e-11
6.397116e-12
-1.027575e-11
5.419569e-11
-3.034544e-11
1.624537e-10
1.910827e-11
3.158902e-12
-8.429173e-12
6.044222e-11
-2.446034e-11
1.812215e-10
6.012941e-12
-3.517767e-12
-3.527422e-12
5.30034e-11
-1.030167e-11
1.587462e-10
-1.970085e-11
-3.853984e-12
3.341998e-11
9.963971e-11
-2.118177e-11
-1.517046e-12
2.809281e-12
3.418581e-11
8.29468e-12
1.01845e-10
-1.204013e-11
-2.981593e-12
9.363144e-12
5.150024e-11
2.738459e-11
1.54245e-10
-1.760033e-11
4.0747e-12
1.025421e-11
5.756155e-11
3.036242e-11
1.72564e-10
9.751265e-12
6.914859e-12
7.483812e-12
5.213911e-11
2.232181e-11
1.562623e-10
2.116635e-11
6.096206e-12
3.738958e-12
4.595978e-11
1.110582e-11
1.37475e-10
1.813543e-11
5.194184e-12
1.808572e-12
4.919147e-11
5.202392e-12
1.472359e-10
1.467016e-11
2.249258e-12
7.602976e-13
3.409265e-11
2.182921e-12
1.015852e-10
2.754549e-12
-2.667639e-13
3.464824e-12
4.071059e-11
1.024082e-11
1.216884e-10
-7.177561e-12
3.315489e-12
4.464639e-12
5.350292e-11
1.337023e-11
1.603556e-10
6.809686e-12
5.943578e-12
2.564393e-12
4.909505e-11
7.684611e-12
1.471449e-10
1.747546e-11
5.244256e-12
5.269198e-13
4.757323e-11
1.584421e-12
1.424276e-10
1.478538e-11
3.668825e-12
3.90562e-13
5.193266e-11
1.00532e-12
1.555281e-10
8.604168e-12
1.796281e-12
1.259956e-12
3.635882e-11
3.536748e-12
1.085561e-10
1.13712e-12
1.724005e-12
1.80953e-12
3.761622e-11
5.380208e-12
1.121507e-10
6.308925e-13
3.915364e-12
1.821256e-12
5.251384e-11
5.598258e-12
1.572217e-10
9.245303e-12
5.273413e-12
-6.039412e-14
4.940238e-11
-4.907128e-14
1.479158e-10
1.480868e-11
5.305995e-12
-1.829957e-12
4.866362e-11
-5.392175e-12
1.457169e-10
1.503655e-11
2.370322e-12
1.556563e-14
5.238912e-11
-3.388029e-14
1.570217e-10
3.424145e-12
3.857563e-13
2.665968e-12
3.683536e-11
7.849858e-12
1.099894e-10
-4.457305e-12
2.70085e-12
2.384432e-12
3.78031e-11
7.277669e-12
1.127715e-10
4.372566e-12
5.03193e-12
1.294734e-12
5.273832e-11
4.13414e-12
1.579348e-10
1.371622e-11
5.093994e-12
3.732964e-14
4.949112e-11
1.119042e-13
1.48349e-10
1.426086e-11
5.087728e-12
-1.252013e-12
4.952255e-11
-4.013857e-12
1.484391e-10
1.424084e-11
5.031954e-12
-2.380499e-12
5.279133e-11
-7.281623e-12
1.580884e-10
1.372189e-11
2.723153e-12
-2.702574e-12
3.784893e-11
-7.976546e-12
1.129064e-10
4.462711e-12
3.873856e-13
-5.301295e-14
3.678753e-11
-9.515431e-14
1.098431e-10
-4.447787e-12
2.320869e-12
1.833289e-12
5.237679e-11
5.383043e-12
1.569841e-10
3.229405e-12
5.304866e-12
4.428348e-14
4.86282e-11
-5.624485e-15
1.456033e-10
1.502467e-11
5.262295e-12
-1.83629e-12
4.939496e-11
-5.643154e-12
1.478866e-10
1.476331e-11
3.862056e-12
-1.777731e-12
5.253085e-11
-5.296423e-12
1.572732e-10
9.044849e-12
1.711892e-12
-1.198196e-12
3.762536e-11
-3.367837e-12
1.121794e-10
5.910412e-13
1.836054e-12
-3.663907e-13
3.631515e-11
-9.472618e-13
1.084224e-10
1.291781e-12
3.721822e-12
-5.402365e-13
5.189748e-11
-1.627787e-12
1.554222e-10
8.806044e-12
5.25117e-12
-2.554274e-12
4.754559e-11
-7.65278e-12
1.4235e-10
1.480544e-11
5.924543e-12
-4.409173e-12
4.911776e-11
-1.322086e-11
1.472215e-10
1.74061e-11
3.333841e-12
-3.418778e-12
5.355131e-11
-1.011981e-11
1.605016e-10
6.878711e-12
-1.966973e-13
-7.769287e-13
4.076481e-11
-2.227806e-12
1.218499e-10
-6.922339e-12
2.235517e-12
-1.809851e-12
3.406798e-11
-5.198428e-12
1.015096e-10
2.700887e-12
5.157202e-12
-3.700305e-12
4.919509e-11
-1.099371e-11
1.472445e-10
1.453468e-11
6.1046e-12
-7.465623e-12
4.596113e-11
-2.227336e-11
1.374734e-10
1.817408e-11
6.915714e-12
-1.025198e-11
5.214859e-11
-3.03551e-11
1.562842e-10
2.116702e-11
4.061387e-12
-9.355942e-12
5.757169e-11
-2.736248e-11
1.72591e-10
9.699269e-12
-2.989404e-12
-2.800968e-12
5.151762e-11
-8.2709e-12
1.542942e-10
-1.762897e-11
-1.515759e-12
3.42011e-11
1.018877e-10
-1.203466e-11
1.968403e-13
1.65174e-12
3.439976e-11
4.923986e-12
1.024554e-10
-5.337524e-12
-1.666805e-12
8.288393e-12
4.860689e-11
2.447707e-11
1.45596e-10
-1.257091e-11
4.094659e-12
8.965276e-12
5.487174e-11
2.668388e-11
1.645298e-10
9.922053e-12
6.627019e-12
6.186396e-12
5.036857e-11
1.848495e-11
1.509467e-10
2.014158e-11
4.654141e-12
3.923307e-12
4.56369e-11
1.169427e-11
1.365352e-10
1.238466e-11
4.233668e-12
2.728605e-12
4.82239e-11
8.135356e-12
1.442975e-10
1.073097e-11
3.327853e-12
7.668736e-13
3.478652e-11
2.521077e-12
1.035786e-10
6.948648e-12
9.299899e-13
2.746994e-12
3.986943e-11
8.237959e-12
1.191155e-10
-2.213996e-12
3.478409e-12
3.473856e-12
5.137495e-11
1.038048e-11
1.540033e-10
7.6881e-12
5.65066e-12
1.642385e-12
4.734949e-11
4.994136e-12
1.418166e-10
1.636536e-11
3.833914e-12
7.066801e-13
4.674669e-11
2.17551e-12
1.399076e-10
9.172471e-12
2.489492e-12
1.56186e-12
5.066404e-11
4.570805e-12
1.517444e-10
3.877855e-12
2.128841e-12
1.730756e-12
3.612539e-11
5.1286e-12
1.077008e-10
2.426271e-12
2.400754e-12
1.205881e-12
3.780658e-11
3.582703e-12
1.126073e-10
3.490089e-12
3.914542e-12
9.168914e-13
5.096493e-11
2.78526e-12
1.525601e-10
9.373578e-12
4.685869e-12
-3.327409e-13
4.803894e-11
-9.559792e-13
1.438334e-10
1.250954e-11
3.980192e-12
-1.180961e-12
4.760416e-11
-3.531172e-12
1.424778e-10
9.794446e-12
1.697932e-12