/*--------------------------------*- C++ -*----------------------------------*\
| =========                 |                                                 |
| \\      /  F ield         | OpenFOAM: The Open Source CFD Toolbox           |
|  \\    /   O peration     | Version:  4.0                                   |
|   \\  /    A nd           | Web:      www.OpenFOAM.org                      |
|    \\/     M anipulation  |                                                 |
\*---------------------------------------------------------------------------*/
FoamFile
{
    version     2.0;
    format      ascii;
    class       volScalarField;
    location    "60/fuel";
    object      rho;
}
// * * * * * * * * * * * * * * * * * * * * * * * * * * * * * * * * * * * * * //

dimensions      [1 -3 0 0 0 0 0];

internalField   nonuniform List<scalar> 
39776
(
1.026395
1.026386
1.026151
1.026143
1.026067
1.026058
1.026101
1.026092
1.026108
1.0261
1.02608
1.026072
1.026179
1.026171
1.026167
1.026159
1.026081
1.026073
1.026112
1.026104
1.026113
1.026104
1.026083
1.026075
1.026175
1.026167
1.026172
1.026163
1.026083
1.026075
1.026114
1.026105
1.026114
1.026106
1.026084
1.026076
1.026175
1.026167
1.026174
1.026165
1.026084
1.026076
1.026114
1.026106
1.026114
1.026106
1.026084
1.026076
1.026174
1.026165
1.026175
1.026167
1.026084
1.026076
1.026114
1.026106
1.026114
1.026105
1.026083
1.026075
1.026172
1.026164
1.026176
1.026168
1.026084
1.026075
1.026113
1.026105
1.026112
1.026104
1.026081
1.026073
1.026166
1.026158
1.026179
1.026171
1.02608
1.026072
1.026107
1.026099
1.0261
1.026091
1.026065
1.026057
1.026149
1.02614
1.026391
1.026383
1.026398
1.02639
1.026184
1.026176
1.026062
1.026054
1.026075
1.026067
1.026083
1.026075
1.026081
1.026072
1.026221
1.026212
1.026204
1.026196
1.02608
1.026071
1.026088
1.02608
1.026089
1.026081
1.026084
1.026076
1.026217
1.026209
1.026211
1.026203
1.026083
1.026075
1.02609
1.026082
1.026091
1.026083
1.026085
1.026077
1.026217
1.026208
1.026215
1.026207
1.026085
1.026077
1.026092
1.026083
1.026092
1.026083
1.026085
1.026077
1.026215
1.026207
1.026217
1.026208
1.026085
1.026077
1.026091
1.026083
1.026091
1.026082
1.026083
1.026075
1.026211
1.026203
1.026217
1.026209
1.026084
1.026076
1.026089
1.026081
1.026088
1.02608
1.02608
1.026071
1.026204
1.026196
1.02622
1.026212
1.026081
1.026072
1.026083
1.026075
1.026075
1.026067
1.026062
1.026054
1.026184
1.026175
1.026397
1.026389
1.026468
1.02646
1.026251
1.026242
1.026075
1.026066
1.026064
1.026056
1.026072
1.026064
1.026094
1.026085
1.02627
1.026262
1.02625
1.026242
1.02609
1.026082
1.026076
1.026068
1.026078
1.02607
1.026096
1.026088
1.026266
1.026258
1.026258
1.026249
1.026094
1.026085
1.026079
1.02607
1.026079
1.026071
1.026096
1.026088
1.026264
1.026256
1.026262
1.026254
1.026096
1.026087
1.02608
1.026071
1.02608
1.026071
1.026096
1.026087
1.026262
1.026254
1.026264
1.026256
1.026096
1.026088
1.026079
1.026071
1.026079
1.02607
1.026094
1.026085
1.026258
1.02625
1.026266
1.026258
1.026096
1.026088
1.026078
1.02607
1.026076
1.026068
1.02609
1.026082
1.02625
1.026242
1.02627
1.026262
1.026094
1.026085
1.026072
1.026064
1.026064
1.026056
1.026074
1.026066
1.02625
1.026242
1.026467
1.026459
1.026564
1.026556
1.026349
1.026341
1.026107
1.026099
1.026068
1.02606
1.026076
1.026067
1.026123
1.026115
1.026326
1.026318
1.026311
1.026303
1.026114
1.026106
1.026078
1.02607
1.026081
1.026073
1.026124
1.026116
1.026323
1.026315
1.026317
1.026309
1.02612
1.026111
1.026081
1.026073
1.026082
1.026074
1.026124
1.026115
1.026323
1.026315
1.026321
1.026313
1.026123
1.026115
1.026083
1.026075
1.026083
1.026075
1.026123
1.026115
1.026321
1.026313
1.026323
1.026315
1.026124
1.026116
1.026083
1.026074
1.026081
1.026073
1.02612
1.026111
1.026317
1.026309
1.026324
1.026316
1.026124
1.026116
1.026081
1.026073
1.026078
1.02607
1.026114
1.026106
1.026311
1.026303
1.026326
1.026318
1.026123
1.026115
1.026076
1.026067
1.026068
1.02606
1.026107
1.026098
1.026348
1.02634
1.026563
1.026555
1.02666
1.026652
1.026445
1.026437
1.026144
1.026136
1.026079
1.026071
1.026086
1.026077
1.026153
1.026145
1.026385
1.026377
1.026374
1.026366
1.02614
1.026132
1.026086
1.026078
1.02609
1.026082
1.026153
1.026144
1.026383
1.026375
1.026378
1.02637
1.026145
1.026137
1.026089
1.02608
1.02609
1.026082
1.02615
1.026141
1.026382
1.026374
1.026381
1.026373
1.026149
1.026141
1.026091
1.026082
1.026091
1.026082
1.026149
1.026141
1.026381
1.026373
1.026382
1.026374
1.02615
1.026141
1.02609
1.026082
1.026089
1.02608
1.026145
1.026137
1.026378
1.02637
1.026383
1.026375
1.026152
1.026144
1.026089
1.026081
1.026086
1.026078
1.02614
1.026132
1.026374
1.026366
1.026385
1.026377
1.026153
1.026145
1.026086
1.026078
1.02608
1.026072
1.026145
1.026136
1.026446
1.026437
1.02666
1.026652
1.026759
1.026751
1.02654
1.026532
1.026186
1.026178
1.026095
1.026086
1.026099
1.026091
1.026183
1.026175
1.026443
1.026435
1.026433
1.026425
1.026162
1.026154
1.026095
1.026087
1.026099
1.026091
1.026177
1.026169
1.026441
1.026433
1.026437
1.026428
1.02617
1.026162
1.026098
1.02609
1.026099
1.026091
1.026174
1.026166
1.026439
1.026431
1.026439
1.026431
1.026175
1.026167
1.0261
1.026092
1.0261
1.026092
1.026175
1.026167
1.026439
1.026431
1.026439
1.026431
1.026174
1.026166
1.0261
1.026091
1.026098
1.02609
1.02617
1.026162
1.026437
1.026429
1.026441
1.026433
1.026178
1.02617
1.0261
1.026091
1.026095
1.026087
1.026162
1.026154
1.026433
1.026424
1.026443
1.026435
1.026183
1.026175
1.026099
1.02609
1.026094
1.026086
1.026185
1.026177
1.026539
1.026531
1.026758
1.02675
1.026858
1.02685
1.026627
1.026619
1.026219
1.026211
1.026107
1.026099
1.02611
1.026101
1.026207
1.026199
1.026496
1.026488
1.026483
1.026475
1.026181
1.026173
1.026103
1.026094
1.026107
1.026099
1.026197
1.026189
1.026494
1.026486
1.026491
1.026483
1.026191
1.026183
1.026107
1.026099
1.026108
1.0261
1.026196
1.026187
1.026493
1.026485
1.026493
1.026485
1.026196
1.026188
1.02611
1.026101
1.026109
1.026101
1.026196
1.026188
1.026493
1.026485
1.026493
1.026485
1.026195
1.026187
1.026108
1.0261
1.026107
1.026099
1.026192
1.026183
1.026491
1.026483
1.026494
1.026486
1.026197
1.026189
1.026107
1.026099
1.026102
1.026094
1.026181
1.026173
1.026483
1.026475
1.026496
1.026488
1.026207
1.026199
1.026109
1.026101
1.026107
1.026099
1.026219
1.026211
1.026626
1.026618
1.026857
1.026849
1.026955
1.026947
1.026706
1.026698
1.026248
1.02624
1.026119
1.02611
1.026119
1.02611
1.026225
1.026216
1.026545
1.026537
1.026534
1.026526
1.026201
1.026193
1.026111
1.026102
1.026115
1.026107
1.026216
1.026208
1.026542
1.026534
1.02654
1.026532
1.02621
1.026202
1.026114
1.026106
1.026116
1.026107
1.026213
1.026205
1.026541
1.026533
1.026541
1.026533
1.026213
1.026205
1.026116
1.026108
1.026116
1.026108
1.026213
1.026205
1.026541
1.026533
1.026541
1.026533
1.026213
1.026205
1.026115
1.026107
1.026114
1.026106
1.02621
1.026202
1.02654
1.026532
1.026542
1.026534
1.026216
1.026208
1.026115
1.026107
1.026111
1.026102
1.026201
1.026193
1.026534
1.026526
1.026545
1.026537
1.026225
1.026217
1.026119
1.02611
1.026118
1.02611
1.026248
1.02624
1.026705
1.026697
1.026954
1.026946
1.027048
1.02704
1.026779
1.026771
1.026272
1.026264
1.026128
1.02612
1.026125
1.026117
1.026239
1.02623
1.026588
1.02658
1.026579
1.026571
1.026219
1.026211
1.026118
1.026109
1.026121
1.026113
1.026229
1.026221
1.026585
1.026577
1.026584
1.026576
1.026228
1.02622
1.026121
1.026113
1.026122
1.026114
1.026231
1.026223
1.026585
1.026577
1.026583
1.026575
1.026227
1.026219
1.026122
1.026114
1.026122
1.026114
1.026227
1.026219
1.026583
1.026575
1.026585
1.026577
1.026232
1.026223
1.026123
1.026114
1.026122
1.026113
1.026228
1.02622
1.026584
1.026576
1.026585
1.026577
1.026229
1.026221
1.026121
1.026113
1.026117
1.026109
1.026219
1.02621
1.026579
1.026571
1.026588
1.02658
1.026239
1.026231
1.026125
1.026117
1.026128
1.026119
1.026272
1.026264
1.026778
1.02677
1.027047
1.027039
1.027137
1.027129
1.026846
1.026838
1.026294
1.026286
1.026136
1.026128
1.026132
1.026124
1.026251
1.026243
1.026627
1.026619
1.02662
1.026612
1.026236
1.026227
1.026124
1.026116
1.026127
1.026119
1.026241
1.026233
1.026617
1.026609
1.026623
1.026615
1.026248
1.026239
1.026129
1.026121
1.026129
1.026121
1.026247
1.026239
1.026623
1.026615
1.026619
1.026611
1.02624
1.026232
1.026127
1.026119
1.026127
1.026119
1.02624
1.026232
1.026619
1.026611
1.026623
1.026615
1.026247
1.026239
1.026129
1.026121
1.026129
1.026121
1.026248
1.02624
1.026622
1.026614
1.026617
1.026609
1.026241
1.026233
1.026126
1.026118
1.026124
1.026116
1.026235
1.026227
1.02662
1.026612
1.026627
1.026619
1.026251
1.026243
1.026132
1.026124
1.026137
1.026129
1.026295
1.026287
1.026846
1.026838
1.027138
1.02713
1.027223
1.027215
1.02691
1.026902
1.026317
1.026309
1.026145
1.026137
1.026138
1.02613
1.026262
1.026254
1.026661
1.026653
1.026656
1.026648
1.026252
1.026244
1.026131
1.026122
1.026131
1.026123
1.026251
1.026243
1.026643
1.026635
1.026656
1.026648
1.026267
1.026259
1.026137
1.026128
1.026135
1.026127
1.02626
1.026252
1.026657
1.026649
1.026654
1.026646
1.026256
1.026248
1.026134
1.026125
1.026134
1.026125
1.026256
1.026248
1.026654
1.026646
1.026657
1.026649
1.02626
1.026252
1.026135
1.026127
1.026137
1.026129
1.026267
1.026259
1.026656
1.026648
1.026643
1.026635
1.026251
1.026243
1.026131
1.026123
1.02613
1.026122
1.026251
1.026243
1.026655
1.026647
1.026661
1.026653
1.026262
1.026254
1.026138
1.02613
1.026144
1.026136
1.026316
1.026307
1.026908
1.0269
1.027221
1.027213
1.027301
1.027293
1.026968
1.02696
1.026337
1.026329
1.026152
1.026144
1.026143
1.026135
1.026273
1.026264
1.02669
1.026682
1.026687
1.026679
1.026265
1.026257
1.026135
1.026127
1.026135
1.026126
1.02626
1.026251
1.026663
1.026655
1.026685
1.026677
1.026284
1.026276
1.026144
1.026136
1.02614
1.026132
1.02627
1.026262
1.026684
1.026676
1.026686
1.026679
1.026274
1.026266
1.026141
1.026133
1.026141
1.026133
1.026274
1.026266
1.026686
1.026679
1.026685
1.026677
1.02627
1.026261
1.02614
1.026132
1.026144
1.026136
1.026284
1.026276
1.026685
1.026677
1.026663
1.026655
1.026259
1.026251
1.026135
1.026126
1.026135
1.026127
1.026265
1.026257
1.026686
1.026678
1.02669
1.026682
1.026273
1.026264
1.026143
1.026134
1.026152
1.026144
1.026337
1.026329
1.026967
1.026959
1.0273
1.027292
1.027376
1.027368
1.027023
1.027015
1.026358
1.02635
1.02616
1.026152
1.026148
1.02614
1.026282
1.026274
1.026712
1.026704
1.026714
1.026706
1.026281
1.026273
1.026141
1.026133
1.026139
1.026131
1.026268
1.02626
1.026684
1.026676
1.02671
1.026702
1.026298
1.02629
1.02615
1.026142
1.026144
1.026136
1.026278
1.02627
1.026705
1.026697
1.026714
1.026706
1.026289
1.02628
1.026147
1.026139
1.026147
1.026139
1.026289
1.02628
1.026714
1.026706
1.026705
1.026697
1.026278
1.02627
1.026144
1.026136
1.02615
1.026142
1.026298
1.02629
1.02671
1.026702
1.026683
1.026676
1.026268
1.02626
1.026139
1.026131
1.026141
1.026133
1.026281
1.026273
1.026714
1.026706
1.026712
1.026704
1.026282
1.026274
1.026148
1.02614
1.026159
1.026151
1.026357
1.026349
1.027022
1.027014
1.027375
1.027367
1.027446
1.027438
1.027076
1.027068
1.026378
1.02637
1.026167
1.026159
1.026152
1.026144
1.026289
1.026281
1.026727
1.026719
1.026738
1.02673
1.026298
1.02629
1.026147
1.026139
1.026143
1.026135
1.026277
1.026269
1.026706
1.026698
1.026733
1.026725
1.026309
1.026301
1.026155
1.026147
1.026148
1.02614
1.026286
1.026278
1.026724
1.026716
1.026738
1.02673
1.026303
1.026295
1.026153
1.026145
1.026153
1.026145
1.026303
1.026295
1.026738
1.02673
1.026724
1.026716
1.026286
1.026278
1.026148
1.02614
1.026155
1.026147
1.026309
1.026301
1.026733
1.026725
1.026706
1.026698
1.026277
1.026269
1.026143
1.026135
1.026147
1.026139
1.026298
1.026289
1.026738
1.02673
1.026727
1.026719
1.026289
1.026281
1.026152
1.026144
1.026167
1.026159
1.026377
1.026369
1.027074
1.027067
1.027445
1.027437
1.027512
1.027505
1.027124
1.027116
1.026394
1.026386
1.026174
1.026166
1.026156
1.026148
1.026295
1.026287
1.026736
1.026728
1.026758
1.02675
1.026314
1.026306
1.026155
1.026147
1.026148
1.02614
1.026287
1.026279
1.02673
1.026722
1.026755
1.026747
1.026318
1.02631
1.02616
1.026152
1.026152
1.026144
1.026294
1.026286
1.02674
1.026732
1.026759
1.026751
1.026315
1.026307
1.026159
1.026151
1.026159
1.026151
1.026315
1.026307
1.026759
1.026751
1.02674
1.026732
1.026294
1.026286
1.026152
1.026144
1.02616
1.026152
1.026318
1.02631
1.026755
1.026747
1.02673
1.026722
1.026287
1.026279
1.026148
1.02614
1.026155
1.026147
1.026314
1.026306
1.026759
1.026751
1.026737
1.026729
1.026295
1.026287
1.026157
1.026149
1.026175
1.026166
1.026395
1.026387
1.027124
1.027116
1.027513
1.027505
1.027577
1.027569
1.027173
1.027165
1.026416
1.026408
1.026183
1.026175
1.026162
1.026154
1.026301
1.026293
1.026744
1.026736
1.026776
1.026768
1.026333
1.026325
1.026164
1.026156
1.026154
1.026146
1.026297
1.026289
1.026754
1.026746
1.026776
1.026768
1.026328
1.02632
1.026166
1.026157
1.026157
1.026149
1.026303
1.026295
1.026759
1.026751
1.026779
1.026771
1.026329
1.026321
1.026167
1.026159
1.026167
1.026159
1.026329
1.026321
1.026779
1.026771
1.026759
1.026751
1.026303
1.026295
1.026158
1.026149
1.026166
1.026158
1.026328
1.02632
1.026776
1.026768
1.026754
1.026746
1.026297
1.026289
1.026154
1.026146
1.026164
1.026156
1.026332
1.026324
1.026776
1.026768
1.026744
1.026736
1.026301
1.026293
1.026161
1.026153
1.026182
1.026174
1.026414
1.026406
1.027171
1.027163
1.027575
1.027567
1.027637
1.027629
1.027219
1.027212
1.026438
1.02643
1.026191
1.026183
1.026166
1.026158
1.026305
1.026297
1.026751
1.026743
1.026791
1.026783
1.026349
1.026341
1.026172
1.026164
1.02616
1.026152
1.026306
1.026298
1.026773
1.026765
1.026795
1.026787
1.02634
1.026332
1.026172
1.026164
1.026163
1.026155
1.026313
1.026305
1.026782
1.026774
1.0268
1.026792
1.02634
1.026332
1.026174
1.026166
1.026174
1.026166
1.02634
1.026332
1.0268
1.026792
1.026782
1.026774
1.026313
1.026305
1.026163
1.026155
1.026172
1.026164
1.02634
1.026332
1.026795
1.026787
1.026773
1.026765
1.026306
1.026298
1.02616
1.026152
1.026172
1.026164
1.026349
1.026341
1.026791
1.026783
1.026751
1.026743
1.026305
1.026297
1.026166
1.026158
1.026191
1.026183
1.026437
1.026429
1.027218
1.02721
1.027636
1.027628
1.027697
1.027689
1.027271
1.027263
1.026472
1.026464
1.026205
1.026196
1.026173
1.026165
1.026313
1.026305
1.026763
1.026755
1.026808
1.0268
1.02637
1.026362
1.026183
1.026175
1.026167
1.026159
1.026318
1.02631
1.026795
1.026787
1.026815
1.026808
1.026356
1.026348
1.026181
1.026173
1.026171
1.026163
1.026327
1.026319
1.026806
1.026798
1.02682
1.026812
1.026351
1.026343
1.026181
1.026172
1.026181
1.026172
1.026351
1.026343
1.02682
1.026812
1.026806
1.026798
1.026327
1.026319
1.026171
1.026163
1.026181
1.026173
1.026356
1.026348
1.026815
1.026807
1.026795
1.026787
1.026318
1.02631
1.026167
1.026159
1.026183
1.026175
1.02637
1.026362
1.026808
1.0268
1.026762
1.026755
1.026313
1.026305
1.026173
1.026165
1.026204
1.026196
1.026471
1.026463
1.02727
1.027262
1.027696
1.027688
1.027761
1.027753
1.027339
1.027331
1.026534
1.026526
1.026227
1.026219
1.026183
1.026175
1.026326
1.026318
1.02679
1.026782
1.026829
1.026821
1.026396
1.026388
1.026197
1.026189
1.026178
1.02617
1.026339
1.026331
1.026821
1.026813
1.026838
1.02683
1.026379
1.026371
1.026192
1.026184
1.026182
1.026174
1.026351
1.026343
1.026832
1.026824
1.026842
1.026834
1.026373
1.026365
1.026191
1.026183
1.026191
1.026183
1.026373
1.026365
1.026842
1.026834
1.026832
1.026824
1.026351
1.026343
1.026182
1.026174
1.026192
1.026184
1.026379
1.026371
1.026838
1.02683
1.026821
1.026813
1.026339
1.026331
1.026178
1.02617
1.026197
1.026188
1.026396
1.026388
1.026828
1.02682
1.02679
1.026782
1.026326
1.026318
1.026183
1.026175
1.026226
1.026218
1.026533
1.026525
1.027338
1.02733
1.02776
1.027752
1.027835
1.027827
1.027416
1.027408
1.026599
1.026591
1.026252
1.026244
1.026196
1.026188
1.026343
1.026335
1.026817
1.026809
1.026855
1.026847
1.026425
1.026417
1.026212
1.026204
1.026191
1.026183
1.026364
1.026356
1.02685
1.026842
1.026866
1.026858
1.026405
1.026397
1.026205
1.026197
1.026195
1.026187
1.026378
1.02637
1.02686
1.026852
1.026868
1.02686
1.026396
1.026388
1.026203
1.026195
1.026203
1.026195
1.026396
1.026388
1.026868
1.02686
1.02686
1.026852
1.026378
1.02637
1.026195
1.026187
1.026205
1.026197
1.026405
1.026397
1.026865
1.026857
1.02685
1.026842
1.026364
1.026356
1.026191
1.026182
1.026213
1.026204
1.026426
1.026418
1.026855
1.026847
1.026817
1.026809
1.026344
1.026335
1.026197
1.026189
1.026253
1.026245
1.026599
1.026591
1.027416
1.027408
1.027835
1.027827
1.027945
1.027937
1.027583
1.027575
1.026832
1.026824
1.026338
1.02633
1.026245
1.026237
1.026439
1.02643
1.026872
1.026864
1.026906
1.026898
1.026529
1.026521
1.026257
1.026249
1.026233
1.026225
1.026468
1.02646
1.026901
1.026893
1.026915
1.026907
1.026506
1.026498
1.026247
1.026239
1.026238
1.026229
1.026483
1.026475
1.02691
1.026903
1.026917
1.026909
1.026497
1.026489
1.026245
1.026237
1.026245
1.026237
1.026497
1.026489
1.026917
1.026909
1.026911
1.026903
1.026483
1.026475
1.026238
1.02623
1.026247
1.026239
1.026506
1.026498
1.026915
1.026908
1.026901
1.026894
1.026468
1.02646
1.026234
1.026226
1.026257
1.026248
1.026529
1.026521
1.026906
1.026898
1.026871
1.026863
1.026438
1.02643
1.026245
1.026236
1.026337
1.026329
1.02683
1.026822
1.027581
1.027573
1.027943
1.027935
1.028135
1.028127
1.027873
1.027866
1.027262
1.027254
1.0266
1.026592
1.026404
1.026396
1.026651
1.026643
1.026991
1.026983
1.027021
1.027013
1.026728
1.02672
1.026405
1.026397
1.02638
1.026372
1.026679
1.026671
1.027017
1.027009
1.027029
1.027021
1.026709
1.026701
1.026393
1.026385
1.026385
1.026376
1.026694
1.026686
1.027027
1.027019
1.027031
1.027023
1.026701
1.026693
1.026389
1.026381
1.026389
1.026381
1.026701
1.026693
1.027031
1.027023
1.027027
1.027019
1.026693
1.026685
1.026384
1.026376
1.026393
1.026384
1.026708
1.0267
1.027029
1.027021
1.027017
1.027009
1.026679
1.026671
1.02638
1.026372
1.026405
1.026397
1.026727
1.026719
1.02702
1.027012
1.026991
1.026983
1.026651
1.026643
1.026404
1.026396
1.0266
1.026592
1.02726
1.027253
1.027872
1.027864
1.028133
1.028125
1.026371
1.02635
1.026329
1.026309
1.02629
1.026272
1.026256
1.026242
1.026228
1.026217
1.026206
1.026198
1.026191
1.026185
1.02618
1.026177
1.026175
1.026173
1.026173
1.026173
1.026127
1.026105
1.026083
1.026061
1.026041
1.026022
1.026004
1.025989
1.025974
1.025962
1.025951
1.025942
1.025935
1.025929
1.025925
1.025921
1.025918
1.025916
1.025914
1.025912
1.026043
1.026021
1.025999
1.025977
1.025956
1.025936
1.025918
1.025902
1.025888
1.025877
1.025868
1.025861
1.025856
1.025854
1.025853
1.025853
1.025854
1.025856
1.025858
1.025862
1.026077
1.026055
1.026033
1.026012
1.025992
1.025973
1.025956
1.025941
1.025928
1.025917
1.025909
1.025903
1.0259
1.025898
1.025897
1.025898
1.0259
1.025902
1.025905
1.025909
1.026084
1.026062
1.026041
1.02602
1.025999
1.02598
1.025963
1.025947
1.025934
1.025923
1.025914
1.025908
1.025903
1.025901
1.0259
1.025901
1.025902
1.025904
1.025907
1.02591
1.026057
1.026035
1.026012
1.025991
1.025969
1.025949
1.025931
1.025915
1.0259
1.025888
1.025879
1.025872
1.025867
1.025864
1.025862
1.025862
1.025863
1.025865
1.025867
1.02587
1.026156
1.026133
1.026112
1.026091
1.026071
1.026053
1.026036
1.02602
1.026006
1.025994
1.025982
1.025973
1.025964
1.025957
1.025952
1.025947
1.025943
1.025939
1.025937
1.025934
1.026143
1.026121
1.026099
1.026078
1.026059
1.02604
1.026023
1.026007
1.025993
1.02598
1.025969
1.025959
1.025951
1.025944
1.025938
1.025933
1.025929
1.025926
1.025923
1.025921
1.026058
1.026035
1.026013
1.025991
1.02597
1.025951
1.025932
1.025916
1.025902
1.02589
1.02588
1.025873
1.025868
1.025865
1.025864
1.025864
1.025865
1.025866
1.025869
1.025872
1.026089
1.026067
1.026045
1.026024
1.026004
1.025985
1.025967
1.025952
1.025938
1.025927
1.025918
1.025912
1.025908
1.025905
1.025904
1.025904
1.025906
1.025908
1.025911
1.025914
1.026089
1.026067
1.026046
1.026025
1.026004
1.025986
1.025968
1.025953
1.025939
1.025928
1.025919
1.025913
1.025908
1.025906
1.025905
1.025905
1.025906
1.025908
1.025911
1.025914
1.02606
1.026037
1.026015
1.025994
1.025973
1.025953
1.025934
1.025918
1.025904
1.025892
1.025882
1.025875
1.02587
1.025867
1.025866
1.025866
1.025866
1.025868
1.02587
1.025873
1.026152
1.02613
1.026108
1.026087
1.026068
1.026049
1.026032
1.026017
1.026002
1.02599
1.025979
1.025969
1.025961
1.025954
1.025948
1.025943
1.025939
1.025936
1.025933
1.025931
1.026148
1.026126
1.026104
1.026084
1.026064
1.026045
1.026028
1.026013
1.025998
1.025986
1.025975
1.025965
1.025957
1.02595
1.025944
1.025939
1.025935
1.025932
1.025929
1.025927
1.02606
1.026038
1.026015
1.025994
1.025973
1.025953
1.025935
1.025918
1.025904
1.025892
1.025883
1.025876
1.025871
1.025868
1.025866
1.025866
1.025867
1.025869
1.025871
1.025874
1.02609
1.026068
1.026047
1.026026
1.026005
1.025986
1.025969
1.025954
1.02594
1.025929
1.02592
1.025914
1.025909
1.025907
1.025906
1.025906
1.025907
1.025909
1.025912
1.025915
1.02609
1.026069
1.026047
1.026026
1.026006
1.025987
1.025969
1.025954
1.02594
1.025929
1.02592
1.025914
1.025909
1.025907
1.025906
1.025906
1.025907
1.02591
1.025912
1.025915
1.026061
1.026038
1.026016
1.025995
1.025974
1.025954
1.025936
1.025919
1.025905
1.025893
1.025884
1.025876
1.025871
1.025868
1.025867
1.025867
1.025868
1.025869
1.025872
1.025874
1.026151
1.026129
1.026108
1.026087
1.026067
1.026049
1.026032
1.026016
1.026002
1.025989
1.025978
1.025968
1.02596
1.025953
1.025948
1.025943
1.025939
1.025936
1.025933
1.02593
1.02615
1.026128
1.026106
1.026086
1.026066
1.026048
1.02603
1.026015
1.026001
1.025988
1.025977
1.025967
1.025959
1.025952
1.025946
1.025941
1.025938
1.025934
1.025932
1.025929
1.026061
1.026038
1.026016
1.025995
1.025974
1.025954
1.025936
1.025919
1.025905
1.025893
1.025884
1.025876
1.025872
1.025868
1.025867
1.025867
1.025868
1.025869
1.025872
1.025875
1.026091
1.026069
1.026047
1.026026
1.026006
1.025987
1.02597
1.025954
1.025941
1.02593
1.025921
1.025914
1.02591
1.025907
1.025906
1.025906
1.025908
1.02591
1.025912
1.025916
1.026091
1.026069
1.026047
1.026026
1.026006
1.025987
1.02597
1.025954
1.025941
1.02593
1.025921
1.025914
1.02591
1.025907
1.025906
1.025906
1.025908
1.02591
1.025912
1.025916
1.026061
1.026038
1.026016
1.025995
1.025974
1.025954
1.025936
1.025919
1.025905
1.025893
1.025884
1.025876
1.025872
1.025868
1.025867
1.025867
1.025868
1.025869
1.025872
1.025875
1.02615
1.026128
1.026106
1.026086
1.026066
1.026048
1.026031
1.026015
1.026001
1.025988
1.025977
1.025967
1.025959
1.025952
1.025946
1.025942
1.025938
1.025934
1.025932
1.025929
1.026151
1.026129
1.026108
1.026087
1.026067
1.026049
1.026032
1.026016
1.026002
1.025989
1.025978
1.025969
1.02596
1.025953
1.025948
1.025943
1.025939
1.025936
1.025933
1.025931
1.026061
1.026039
1.026017
1.025995
1.025974
1.025954
1.025936
1.025919
1.025905
1.025893
1.025884
1.025876
1.025871
1.025868
1.025867
1.025867
1.025868
1.025869
1.025872
1.025874
1.026091
1.026069
1.026047
1.026026
1.026006
1.025987
1.02597
1.025954
1.02594
1.025929
1.02592
1.025914
1.025909
1.025907
1.025906
1.025906
1.025907
1.02591
1.025912
1.025915
1.02609
1.026068
1.026047
1.026026
1.026006
1.025987
1.025969
1.025954
1.02594
1.025929
1.02592
1.025914
1.025909
1.025907
1.025906
1.025906
1.025907
1.025909
1.025912
1.025915
1.02606
1.026038
1.026015
1.025994
1.025973
1.025953
1.025935
1.025918
1.025904
1.025892
1.025883
1.025876
1.025871
1.025868
1.025866
1.025866
1.025867
1.025869
1.025871
1.025874
1.026149
1.026126
1.026105
1.026084
1.026064
1.026046
1.026029
1.026013
1.025999
1.025986
1.025975
1.025965
1.025957
1.02595
1.025944
1.02594
1.025936
1.025932
1.02593
1.025927
1.026152
1.02613
1.026109
1.026088
1.026068
1.02605
1.026033
1.026017
1.026003
1.02599
1.025979
1.025969
1.025961
1.025954
1.025948
1.025943
1.02594
1.025936
1.025934
1.025931
1.02606
1.026038
1.026016
1.025994
1.025973
1.025953
1.025935
1.025918
1.025904
1.025892
1.025882
1.025875
1.02587
1.025867
1.025866
1.025866
1.025866
1.025868
1.02587
1.025873
1.026089
1.026068
1.026046
1.026025
1.026005
1.025986
1.025968
1.025953
1.025939
1.025928
1.025919
1.025913
1.025908
1.025906
1.025905
1.025905
1.025906
1.025908
1.025911
1.025914
1.026088
1.026067
1.026045
1.026024
1.026004
1.025985
1.025967
1.025952
1.025938
1.025927
1.025918
1.025912
1.025908
1.025905
1.025904
1.025904
1.025906
1.025908
1.025911
1.025914
1.026057
1.026035
1.026013
1.025991
1.02597
1.02595
1.025932
1.025916
1.025902
1.02589
1.02588
1.025873
1.025868
1.025865
1.025864
1.025864
1.025865
1.025866
1.025869
1.025872
1.026143
1.02612
1.026099
1.026078
1.026058
1.02604
1.026023
1.026007
1.025993
1.02598
1.025969
1.025959
1.025951
1.025944
1.025938
1.025933
1.025929
1.025926
1.025923
1.025921
1.026155
1.026133
1.026112
1.026091
1.026071
1.026053
1.026036
1.02602
1.026006
1.025993
1.025982
1.025973
1.025964
1.025957
1.025951
1.025947
1.025943
1.025939
1.025936
1.025934
1.026057
1.026034
1.026012
1.02599
1.025969
1.025949
1.025931
1.025915
1.0259
1.025888
1.025879
1.025872
1.025867
1.025864
1.025862
1.025862
1.025863
1.025865
1.025867
1.02587
1.026084
1.026062
1.02604
1.026019
1.025999
1.02598
1.025963
1.025947
1.025934
1.025923
1.025914
1.025908
1.025904
1.025901
1.0259
1.025901
1.025902
1.025904
1.025907
1.02591
1.026076
1.026054
1.026033
1.026012
1.025992
1.025973
1.025956
1.025941
1.025928
1.025917
1.025909
1.025903
1.0259
1.025898
1.025897
1.025898
1.0259
1.025902
1.025905
1.025909
1.026042
1.02602
1.025998
1.025976
1.025955
1.025936
1.025918
1.025902
1.025888
1.025876
1.025868
1.025861
1.025856
1.025854
1.025853
1.025853
1.025854
1.025856
1.025859
1.025862
1.026125
1.026103
1.026081
1.026059
1.026039
1.02602
1.026003
1.025987
1.025973
1.025961
1.02595
1.025941
1.025934
1.025928
1.025924
1.02592
1.025917
1.025915
1.025913
1.025911
1.026368
1.026346
1.026325
1.026306
1.026287
1.026269
1.026253
1.026239
1.026225
1.026214
1.026204
1.026195
1.026188
1.026182
1.026178
1.026174
1.026172
1.026171
1.02617
1.02617
1.026375
1.026354
1.026333
1.026313
1.026294
1.026277
1.02626
1.026245
1.026232
1.02622
1.026209
1.0262
1.026192
1.026186
1.026182
1.026178
1.026176
1.026175
1.026174
1.026174
1.026161
1.026138
1.026116
1.026095
1.026075
1.026055
1.026037
1.02602
1.026005
1.025991
1.025979
1.025969
1.02596
1.025953
1.025948
1.025943
1.02594
1.025938
1.025936
1.025935
1.026039
1.026016
1.025994
1.025972
1.025951
1.02593
1.025911
1.025893
1.025876
1.025861
1.025848
1.025836
1.025826
1.025817
1.02581
1.025804
1.025799
1.025794
1.025791
1.025787
1.026052
1.02603
1.026008
1.025986
1.025966
1.025946
1.025928
1.025911
1.025895
1.025881
1.025868
1.025858
1.025848
1.025841
1.025834
1.025829
1.025825
1.025822
1.025819
1.025817
1.02606
1.026037
1.026016
1.025994
1.025974
1.025954
1.025935
1.025918
1.025902
1.025888
1.025875
1.025864
1.025854
1.025846
1.025839
1.025834
1.025829
1.025826
1.025823
1.02582
1.026057
1.026035
1.026012
1.025991
1.025969
1.025949
1.025929
1.025911
1.025894
1.025878
1.025864
1.025852
1.025841
1.025832
1.025824
1.025817
1.025811
1.025806
1.025802
1.025798
1.026197
1.026175
1.026154
1.026133
1.026114
1.026095
1.026078
1.026062
1.026047
1.026034
1.026022
1.026012
1.026003
1.025995
1.025989
1.025984
1.025981
1.025978
1.025976
1.025975
1.02618
1.026158
1.026137
1.026116
1.026096
1.026078
1.02606
1.026044
1.026029
1.026015
1.026004
1.025993
1.025984
1.025977
1.025971
1.025966
1.025962
1.025959
1.025957
1.025956
1.026056
1.026034
1.026011
1.02599
1.025968
1.025948
1.025928
1.02591
1.025893
1.025878
1.025864
1.025852
1.025841
1.025832
1.025824
1.025818
1.025812
1.025807
1.025803
1.0258
1.026064
1.026042
1.02602
1.025999
1.025978
1.025959
1.02594
1.025923
1.025907
1.025893
1.02588
1.025869
1.025859
1.025851
1.025844
1.025838
1.025834
1.02583
1.025828
1.025825
1.026066
1.026043
1.026022
1.026
1.02598
1.02596
1.025941
1.025924
1.025908
1.025894
1.025881
1.02587
1.02586
1.025852
1.025845
1.025839
1.025835
1.025831
1.025828
1.025826
1.02606
1.026038
1.026016
1.025994
1.025972
1.025952
1.025932
1.025914
1.025897
1.025882
1.025868
1.025856
1.025845
1.025835
1.025828
1.025821
1.025815
1.02581
1.025806
1.025802
1.026194
1.026172
1.026151
1.02613
1.02611
1.026092
1.026074
1.026058
1.026043
1.02603
1.026018
1.026008
1.025999
1.025991
1.025985
1.02598
1.025977
1.025974
1.025972
1.025971
1.026187
1.026165
1.026144
1.026123
1.026103
1.026085
1.026067
1.026051
1.026036
1.026023
1.026011
1.026001
1.025992
1.025984
1.025978
1.025973
1.025969
1.025967
1.025965
1.025963
1.02606
1.026037
1.026015
1.025993
1.025972
1.025951
1.025932
1.025913
1.025897
1.025881
1.025867
1.025855
1.025845
1.025835
1.025827
1.025821
1.025815
1.02581
1.025806
1.025802
1.026067
1.026045
1.026023
1.026001
1.025981
1.025961
1.025942
1.025925
1.025909
1.025895
1.025882
1.025871
1.025861
1.025853
1.025846
1.02584
1.025836
1.025832
1.025829
1.025827
1.026068
1.026045
1.026024
1.026002
1.025981
1.025962
1.025943
1.025926
1.02591
1.025895
1.025882
1.025871
1.025861
1.025853
1.025846
1.025841
1.025836
1.025833
1.02583
1.025827
1.026062
1.026039
1.026017
1.025995
1.025973
1.025953
1.025933
1.025915
1.025898
1.025883
1.025869
1.025857
1.025846
1.025837
1.025829
1.025822
1.025816
1.025811
1.025807
1.025803
1.026193
1.026171
1.02615
1.026129
1.026109
1.02609
1.026073
1.026057
1.026042
1.026029
1.026017
1.026006
1.025998
1.02599
1.025984
1.025979
1.025975
1.025972
1.025971
1.025969
1.026191
1.026169
1.026148
1.026127
1.026107
1.026089
1.026071
1.026055
1.02604
1.026027
1.026015
1.026005
1.025996
1.025988
1.025982
1.025977
1.025973
1.025971
1.025969
1.025967
1.026061
1.026039
1.026017
1.025995
1.025973
1.025953
1.025933
1.025915
1.025898
1.025883
1.025869
1.025857
1.025846
1.025837
1.025829
1.025822
1.025816
1.025811
1.025807
1.025803
1.026068
1.026046
1.026024
1.026003
1.025982
1.025962
1.025943
1.025926
1.02591
1.025896
1.025883
1.025872
1.025862
1.025854
1.025847
1.025841
1.025837
1.025833
1.02583
1.025828
1.026068
1.026046
1.026024
1.026003
1.025982
1.025962
1.025943
1.025926
1.02591
1.025896
1.025883
1.025872
1.025862
1.025854
1.025847
1.025841
1.025837
1.025833
1.02583
1.025828