/*--------------------------------*- C++ -*----------------------------------*\
| =========                 |                                                 |
| \\      /  F ield         | OpenFOAM: The Open Source CFD Toolbox           |
|  \\    /   O peration     | Version:  4.0                                   |
|   \\  /    A nd           | Web:      www.OpenFOAM.org                      |
|    \\/     M anipulation  |                                                 |
\*---------------------------------------------------------------------------*/
FoamFile
{
    version     2.0;
    format      ascii;
    class       volVectorField;
    location    "60/fuel";
    object      U;
}
// * * * * * * * * * * * * * * * * * * * * * * * * * * * * * * * * * * * * * //

dimensions      [0 1 -1 0 0 0 0];

internalField   nonuniform List<vector> 
39776
(
(8.295774e-06 0.0003516526 0.0001394545)
(8.469704e-06 0.001047465 0.0004091153)
(8.601006e-06 -0.001028531 0.0005397908)
(1.224869e-05 -0.003059905 0.001629696)
(6.480085e-06 -0.00121661 0.002750618)
(-6.811028e-06 -0.003616198 0.008296527)
(6.441486e-06 2.18153e-05 0.002760609)
(-5.882506e-06 6.350625e-05 0.008332515)
(6.562297e-06 -0.0002654689 0.002663902)
(-4.794078e-06 -0.0007923364 0.008041425)
(6.344428e-06 0.0006577515 0.002675889)
(-6.769987e-06 0.00195499 0.008073098)
(8.624775e-06 0.0008249029 0.0005313137)
(1.128424e-05 0.002454387 0.001594825)
(8.636568e-06 -0.0008888118 0.0005590492)
(1.16018e-05 -0.002644538 0.001679712)
(6.415628e-06 -0.0007933355 0.002701047)
(-6.601302e-06 -0.002359022 0.008147672)
(6.516048e-06 0.0001274305 0.00268506)
(-4.903047e-06 0.0003788378 0.00810485)
(6.512094e-06 -0.0001740107 0.002680053)
(-4.786805e-06 -0.000517831 0.00808983)
(6.345597e-06 0.0007121825 0.002696254)
(-6.719847e-06 0.002118081 0.008133675)
(8.594139e-06 0.0008584765 0.0005550922)
(1.134947e-05 0.002554746 0.001666741)
(8.604312e-06 -0.0008768309 0.0005606018)
(1.146539e-05 -0.002608846 0.00168375)
(6.379751e-06 -0.000751903 0.002694153)
(-6.645399e-06 -0.002235535 0.008126939)
(6.529456e-06 0.000146788 0.002675377)
(-4.72572e-06 0.0004368433 0.008075293)
(6.539624e-06 -0.0001577064 0.002675111)
(-4.664193e-06 -0.0004694119 0.008074346)
(6.370667e-06 0.0007264243 0.002694232)
(-6.642948e-06 0.002159905 0.008127082)
(8.591715e-06 0.0008665017 0.000559668)
(1.138873e-05 0.002578313 0.001680576)
(8.591852e-06 -0.0008740871 0.0005604113)
(1.141581e-05 -0.002601029 0.00168305)
(6.346407e-06 -0.0007377592 0.00269062)
(-6.710562e-06 -0.002194105 0.008116477)
(6.474155e-06 0.0001536282 0.002668907)
(-4.859518e-06 0.0004569877 0.008056131)
(6.474549e-06 -0.0001537377 0.002668878)
(-4.857422e-06 -0.0004573215 0.008056048)
(6.343861e-06 0.0007374024 0.002690577)
(-6.717354e-06 0.002193123 0.008116352)
(8.593235e-06 0.000873904 0.0005605108)
(1.142097e-05 0.002600398 0.001683304)
(8.606683e-06 -0.0008663256 0.0005597861)
(1.141539e-05 -0.002577922 0.001681024)
(6.358168e-06 -0.0007267606 0.002694145)
(-6.682307e-06 -0.002160719 0.008126829)
(6.557609e-06 0.00015769 0.002675394)
(-4.637305e-06 0.0004693415 0.008075106)
(6.512486e-06 -0.0001468076 0.002675204)
(-4.776687e-06 -0.0004369984 0.00807476)
(6.390182e-06 0.0007515429 0.00269422)
(-6.614864e-06 0.002234631 0.008127167)
(8.623635e-06 0.0008770788 0.0005606612)
(1.148781e-05 0.002609562 0.001683858)
(8.610901e-06 -0.0008583707 0.0005551105)
(1.136438e-05 -0.002554555 0.001666791)
(6.363068e-06 -0.0007123239 0.002696289)
(-6.702576e-06 -0.002118525 0.008133778)
(6.530201e-06 0.0001739899 0.002680078)
(-4.768028e-06 0.0005177441 0.008089913)
(6.508237e-06 -0.0001275049 0.002684944)
(-4.910509e-06 -0.0003791115 0.008104507)
(6.410736e-06 0.0007934689 0.002701019)
(-6.595634e-06 0.002359099 0.008147607)
(8.628628e-06 0.0008893704 0.0005588574)
(1.159543e-05 0.002645693 0.001679307)
(8.58641e-06 -0.0008243688 0.0005310754)
(1.118378e-05 -0.002452284 0.001594301)
(6.337744e-06 -0.0006596109 0.002675633)
(-6.799365e-06 -0.001959832 0.008072149)
(6.632279e-06 0.0002647326 0.00266518)
(-4.504191e-06 0.0007890374 0.008045414)
(6.156569e-06 -2.158185e-05 0.00276078)
(-6.569395e-06 -6.290467e-05 0.008333941)
(6.475367e-06 0.001217232 0.002751736)
(-6.68713e-06 0.003619351 0.008300242)
(8.574174e-06 0.001030304 0.0005395702)
(1.226044e-05 0.003065056 0.001629048)
(8.236577e-06 -0.0003516217 0.0001390828)
(8.390465e-06 -0.001047825 0.0004082278)
(8.177277e-06 -0.0001276524 0.001019072)
(7.896279e-06 -0.0003808414 0.003028644)
(8.15919e-06 -0.0006243974 0.00110764)
(7.053902e-06 -0.001865743 0.003306215)
(7.999094e-06 -0.0005644586 0.002805295)
(4.660665e-06 -0.001688854 0.008413057)
(8.020452e-06 -1.625359e-05 0.002868336)
(5.147356e-06 -4.830962e-05 0.008605547)
(8.127429e-06 -6.739428e-05 0.002843853)
(5.855793e-06 -0.0002032449 0.008530888)
(8.186448e-06 0.0002940744 0.002766224)
(5.997474e-06 0.0008803249 0.0082925)
(8.212946e-06 0.0002408249 0.001346834)
(7.542478e-06 0.0007215427 0.00401344)
(8.218486e-06 -0.0003356332 0.00134668)
(7.460121e-06 -0.001002288 0.004014314)
(8.192361e-06 -0.000359725 0.002826897)
(5.855362e-06 -0.001074746 0.008474462)
(8.155385e-06 1.598851e-05 0.002896659)
(5.895636e-06 4.964639e-05 0.008688996)
(8.195597e-06 -3.707076e-05 0.002889565)
(6.067217e-06 -0.0001128675 0.00866746)
(8.228687e-06 0.0003107461 0.002812883)
(6.08486e-06 0.0009290034 0.008431915)
(8.225493e-06 0.0002668458 0.001364904)
(7.503794e-06 0.0007980317 0.004067692)
(8.223392e-06 -0.0003071826 0.001364766)
(7.479568e-06 -0.000918166 0.004067864)
(8.188349e-06 -0.0003417397 0.002824613)
(5.883801e-06 -0.001021651 0.008467258)
(8.142092e-06 2.394302e-05 0.002896011)
(5.84675e-06 7.324996e-05 0.008686724)
(8.166601e-06 -3.136563e-05 0.002894957)
(5.906723e-06 -9.555868e-05 0.008683412)
(8.208887e-06 0.0003224988 0.002822738)
(5.963095e-06 0.0009643163 0.008461389)
(8.241164e-06 0.0002825313 0.001368138)
(7.508102e-06 0.0008448429 0.004077552)
(8.24449e-06 -0.0002925862 0.001367058)
(7.504117e-06 -0.0008744856 0.004074373)
(8.249668e-06 -0.0003297244 0.002822358)
(6.043674e-06 -0.0009854796 0.008460334)
(8.235271e-06 2.788388e-05 0.002894456)
(6.089429e-06 8.518882e-05 0.0086821)
(8.23463e-06 -2.797015e-05 0.002894452)
(6.088272e-06 -8.544358e-05 0.008682085)
(8.249402e-06 0.0003296495 0.002822303)
(6.044362e-06 0.0009852531 0.008460173)
(8.241653e-06 0.0002924292 0.001367116)
(7.497347e-06 0.0008741129 0.004074496)
(8.242136e-06 -0.0002829113 0.001368176)
(7.510789e-06 -0.0008460209 0.004077734)
(8.20809e-06 -0.0003223651 0.002822669)
(5.9901e-06 -0.0009640834 0.008461269)
(8.131617e-06 3.132198e-05 0.002895014)
(5.851546e-06 9.536887e-05 0.008683558)
(8.154052e-06 -2.42925e-05 0.002895775)
(5.878148e-06 -7.417337e-05 0.008686095)
(8.188052e-06 0.0003418863 0.002824616)
(5.885745e-06 0.001022148 0.008467274)
(8.219691e-06 0.0003070717 0.001364723)
(7.470416e-06 0.0009177568 0.00406767)
(8.217706e-06 -0.0002670701 0.001364858)
(7.495181e-06 -0.0007986881 0.004067554)
(8.222638e-06 -0.000310828 0.002812876)
(6.079657e-06 -0.0009292481 0.008431905)
(8.195046e-06 3.697129e-05 0.002889547)
(6.065769e-06 0.0001125657 0.008667418)
(8.153996e-06 -1.599979e-05 0.002896574)
(5.893935e-06 -4.970242e-05 0.008688758)
(8.184086e-06 0.0003595646 0.002826837)
(5.838606e-06 0.001074248 0.008474289)
(8.22082e-06 0.0003357623 0.00134671)
(7.470066e-06 0.00100252 0.004014527)
(8.217745e-06 -0.0002402528 0.001346799)
(7.555241e-06 -0.000719988 0.004013491)
(8.185016e-06 -0.0002931925 0.002766365)
(5.972863e-06 -0.0008770673 0.008292542)
(8.15949e-06 6.721045e-05 0.002845089)
(5.907811e-06 0.0002037681 0.008534155)
(8.155517e-06 1.609991e-05 0.002868735)
(5.485941e-06 4.817957e-05 0.008606819)
(8.065336e-06 0.0005644244 0.002806497)
(4.785539e-06 0.001688194 0.008416227)
(8.157176e-06 0.0006234057 0.001107904)
(7.033242e-06 0.001862338 0.003306574)
(8.182177e-06 0.0001273708 0.001019303)
(7.914679e-06 0.0003799929 0.003029241)
(8.073242e-06 -5.80607e-05 0.001675805)
(8.058245e-06 -0.0001741557 0.004990163)
(8.068165e-06 -0.0002030485 0.001951604)
(7.266921e-06 -0.0006068823 0.005820875)
(8.28982e-06 -0.000180882 0.003104331)
(7.766036e-06 -0.0005423108 0.009300435)
(8.298597e-06 1.27818e-05 0.003196466)
(7.858268e-06 3.820256e-05 0.009580015)
(8.363904e-06 -7.027483e-06 0.003166228)
(8.315867e-06 -2.240013e-05 0.009487655)
(8.379079e-06 6.937961e-05 0.003038764)
(8.541553e-06 0.0002088968 0.00910064)
(8.14393e-06 2.131084e-05 0.002068563)
(7.841589e-06 6.474486e-05 0.00616864)
(8.144853e-06 -9.381429e-05 0.002086153)
(7.717842e-06 -0.000280029 0.006221558)
(8.344141e-06 -0.0001086406 0.003109789)
(8.280363e-06 -0.0003255897 0.009313465)
(8.344832e-06 2.44692e-06 0.003220662)
(8.177892e-06 7.868673e-06 0.009650053)
(8.342026e-06 -1.010832e-05 0.003210789)
(8.232665e-06 -3.097732e-05 0.009620169)
(8.361275e-06 7.201251e-05 0.003091208)
(8.463992e-06 0.0002167589 0.009257008)
(8.131497e-06 3.690243e-05 0.00209386)
(7.799178e-06 0.0001111496 0.006244064)
(8.127032e-06 -7.564518e-05 0.002097013)
(7.740669e-06 -0.0002262166 0.006253692)
(8.326419e-06 -9.69492e-05 0.003103651)
(8.310356e-06 -0.0002908694 0.009294854)
(8.321291e-06 4.59414e-06 0.003221902)
(8.167202e-06 1.44254e-05 0.009653812)
(8.326032e-06 -5.104207e-06 0.003220814)
(8.212299e-06 -1.614556e-05 0.009650383)
(8.325162e-06 8.103359e-05 0.00309988)
(8.388142e-06 0.0002434849 0.009283252)
(8.121878e-06 5.118469e-05 0.002099355)
(7.765228e-06 0.0001533583 0.006260553)
(8.121299e-06 -6.085372e-05 0.002098968)
(7.754861e-06 -0.0001824153 0.006259447)
(8.31694e-06 -8.910087e-05 0.003100113)
(8.32433e-06 -0.0002674302 0.009283809)
(8.321242e-06 4.550087e-06 0.003219827)
(8.187435e-06 1.445683e-05 0.009647215)
(8.320696e-06 -4.596809e-06 0.003219789)
(8.186969e-06 -1.459515e-05 0.009647101)
(8.314563e-06 8.890667e-05 0.00310005)
(8.321171e-06 0.0002668413 0.00928362)
(8.120526e-06 6.060102e-05 0.002098902)
(7.754063e-06 0.0001816917 0.006259261)
(8.121524e-06 -5.152384e-05 0.002099385)
(7.761862e-06 -0.0001542476 0.006260609)
(8.333424e-06 -8.132601e-05 0.003100023)
(8.406212e-06 -0.0002443416 0.009283722)
(8.325116e-06 4.972157e-06 0.003220724)
(8.207825e-06 1.571601e-05 0.009650171)
(8.326163e-06 -4.48691e-06 0.003221902)
(8.181646e-06 -1.414293e-05 0.009653886)
(8.323555e-06 9.697862e-05 0.003103523)
(8.304201e-06 0.0002908558 0.009294457)
(8.125595e-06 7.548639e-05 0.002096893)
(7.738276e-06 0.0002256961 0.006253371)
(8.13219e-06 -3.699458e-05 0.00209385)
(7.799705e-06 -0.00011141 0.006244056)
(8.362535e-06 -7.209816e-05 0.003091262)
(8.464896e-06 -0.0002170078 0.009257186)
(8.342005e-06 1.008121e-05 0.003210804)
(8.232199e-06 3.087447e-05 0.009620226)
(8.341777e-06 -2.439169e-06 0.003220619)
(8.17008e-06 -7.904431e-06 0.009649935)
(8.33962e-06 0.000109019 0.0031097)
(8.273089e-06 0.0003266305 0.009313206)
(8.144801e-06 9.422674e-05 0.002086085)
(7.71979e-06 0.0002810491 0.006221332)
(8.148389e-06 -2.079231e-05 0.002068282)
(7.853043e-06 -6.370491e-05 0.006167835)
(8.369229e-06 -6.869195e-05 0.003038184)
(8.513602e-06 -0.0002072812 0.009098897)
(8.349317e-06 7.307668e-06 0.003165392)
(8.272227e-06 2.306791e-05 0.009484811)
(8.282472e-06 -1.245991e-05 0.003195967)
(7.821379e-06 -3.73054e-05 0.009577937)
(8.258381e-06 0.000180977 0.003103385)
(7.676971e-06 0.0005428314 0.009297031)
(8.058927e-06 0.000202791 0.001951057)
(7.244999e-06 0.0006065786 0.00581891)
(8.074027e-06 5.802879e-05 0.001675518)
(8.060606e-06 0.0001742973 0.004988969)
(8.073125e-06 -4.061547e-05 0.001614108)
(8.030427e-06 -0.0001214272 0.004806345)
(8.143388e-06 5.907436e-05 0.001846018)
(7.728793e-06 0.0001758095 0.005504403)
(8.491218e-06 6.99235e-05 0.002724675)
(9.617266e-06 0.0002073515 0.008160551)
(8.519579e-06 1.516493e-05 0.002868642)
(9.468752e-06 4.532002e-05 0.00859943)
(8.510325e-06 2.976581e-05 0.002844017)
(9.531237e-06 8.781974e-05 0.008524653)
(8.502139e-06 -5.825309e-05 0.00267321)
(9.850423e-06 -0.0001729137 0.008005221)
(8.17394e-06 -9.889308e-05 0.001896943)
(8.04756e-06 -0.0002947518 0.00565628)
(8.172454e-06 5.035503e-05 0.001907507)
(7.943413e-06 0.000150162 0.005687962)
(8.481675e-06 4.315165e-05 0.002730651)
(9.628005e-06 0.0001277852 0.008178476)
(8.49783e-06 -8.474212e-06 0.002882772)
(9.460246e-06 -2.474638e-05 0.00864124)
(8.519256e-06 1.339363e-06 0.002872172)
(9.552647e-06 3.420343e-06 0.008609249)
(8.488459e-06 -6.444263e-05 0.002712137)
(9.75153e-06 -0.0001912803 0.008122283)
(8.17674e-06 -9.089319e-05 0.001909193)
(8.027424e-06 -0.00027084 0.005692807)
(8.183089e-06 6.191834e-05 0.001912752)
(7.995699e-06 0.0001846754 0.005703389)
(8.492706e-06 4.683855e-05 0.002722771)
(9.66767e-06 0.000139081 0.008154373)
(8.522556e-06 -5.658395e-06 0.002877907)
(9.514341e-06 -1.630483e-05 0.008626416)
(8.521464e-06 5.427936e-06 0.002878414)
(9.542027e-06 1.566614e-05 0.008627862)
(8.499484e-06 -5.961244e-05 0.002721254)
(9.752331e-06 -0.0001770473 0.008149552)
(8.203575e-06 -8.321786e-05 0.001914938)
(8.040252e-06 -0.0002481055 0.005709865)
(8.202462e-06 7.050083e-05 0.001915628)
(8.024234e-06 0.0002099566 0.005711958)
(8.51211e-06 5.108496e-05 0.002724689)
(9.712585e-06 0.0001513343 0.008159927)
(8.524529e-06 -6.803687e-06 0.002881928)
(9.485797e-06 -1.979494e-05 0.008638313)
(8.523986e-06 6.761904e-06 0.002881884)
(9.485751e-06 1.967923e-05 0.008638181)
(8.510108e-06 -5.122947e-05 0.002724615)
(9.710254e-06 -0.0001517435 0.008159694)
(8.202055e-06 -7.069781e-05 0.001915668)
(8.025118e-06 -0.0002105223 0.005712077)
(8.203959e-06 8.302373e-05 0.001915027)
(8.039416e-06 0.000247532 0.005710097)
(8.518758e-06 5.951599e-05 0.002721473)
(9.767899e-06 0.0001767698 0.008150139)
(8.541519e-06 -5.47726e-06 0.002878619)
(9.560663e-06 -1.579887e-05 0.008628426)
(8.521683e-06 5.517053e-06 0.002878042)
(9.512921e-06 1.587835e-05 0.008626761)
(8.490599e-06 -4.695102e-05 0.002722746)
(9.664362e-06 -0.000139428 0.008154273)
(8.182359e-06 -6.209952e-05 0.001912802)
(7.996029e-06 -0.0001852386 0.00570354)
(8.18556e-06 9.073957e-05 0.001909215)
(8.036345e-06 0.000270338 0.005692883)
(8.4969e-06 6.438491e-05 0.002712225)
(9.758334e-06 0.0001910876 0.008122564)
(8.519859e-06 -1.40235e-06 0.00287217)
(9.552797e-06 -3.618718e-06 0.008609258)
(8.500518e-06 8.444233e-06 0.00288267)
(9.469403e-06 2.462051e-05 0.008640954)
(8.480934e-06 -4.33628e-05 0.002730502)
(9.630198e-06 -0.0001285013 0.008178075)
(8.171353e-06 -5.070118e-05 0.001907293)
(7.94112e-06 -0.0001512854 0.005687399)
(8.175308e-06 9.846052e-05 0.00189669)
(8.050252e-06 0.000293338 0.005655712)
(8.498875e-06 5.792355e-05 0.002672881)
(9.841842e-06 0.0001717858 0.008004609)
(8.503211e-06 -3.002219e-05 0.002843496)
(9.511365e-06 -8.868013e-05 0.008523524)
(8.515514e-06 -1.547004e-05 0.002868306)
(9.463056e-06 -4.636115e-05 0.008598902)
(8.463572e-06 -6.989813e-05 0.002724087)
(9.565805e-06 -0.0002073109 0.008159254)
(8.13277e-06 -5.880485e-05 0.001845555)
(7.719808e-06 -0.0001749615 0.00550334)
(8.070777e-06 4.081479e-05 0.001613604)
(8.02322e-06 0.0001220043 0.004805028)
(8.022419e-06 -1.275877e-05 0.00164298)
(8.05179e-06 -3.82574e-05 0.004893417)
(8.103148e-06 4.917278e-05 0.001866334)
(8.044295e-06 0.0001465368 0.005565479)
(8.354527e-06 4.773233e-05 0.002581066)
(9.023107e-06 0.0001418813 0.007729971)
(8.396368e-06 5.187449e-06 0.002732347)
(8.913901e-06 1.547829e-05 0.008190377)
(8.419014e-06 2.429596e-05 0.002704965)
(9.019708e-06 7.27022e-05 0.008107771)
(8.391725e-06 -4.379362e-05 0.002535479)
(9.152045e-06 -0.000130254 0.007592283)
(8.160619e-06 -6.152945e-05 0.001865171)
(8.19406e-06 -0.0001830146 0.005562713)
(8.152814e-06 2.194158e-05 0.001870552)
(8.128538e-06 6.604839e-05 0.005579001)
(8.380186e-06 2.330592e-05 0.002574505)
(9.000738e-06 6.949706e-05 0.007710945)
(8.411624e-06 -7.12919e-06 0.002727273)
(8.944584e-06 -2.167759e-05 0.008175818)
(8.413082e-06 5.133994e-06 0.002718219)
(8.988115e-06 1.52737e-05 0.008148231)
(8.384551e-06 -4.481322e-05 0.00255323)
(9.110348e-06 -0.0001335028 0.007646294)
(8.159124e-06 -6.04412e-05 0.001866456)
(8.184536e-06 -0.0001802136 0.005566648)
(8.154654e-06 2.573746e-05 0.00186842)
(8.147928e-06 7.688542e-05 0.005572518)
(8.361448e-06 2.191203e-05 0.002569403)
(8.968509e-06 6.522823e-05 0.007695078)
(8.382172e-06 -5.85865e-06 0.002727955)
(8.877313e-06 -1.763575e-05 0.008177277)
(8.394227e-06 3.920534e-06 0.002727494)
(8.931765e-06 1.189089e-05 0.008175841)
(8.363092e-06 -3.299528e-05 0.002568894)
(9.018982e-06 -9.836699e-05 0.007693337)
(8.137906e-06 -3.993146e-05 0.001872743)
(8.146949e-06 -0.0001194015 0.005585306)
(8.131187e-06 4.282347e-05 0.0018746)
(8.140058e-06 0.0001276438 0.005590845)
(8.360349e-06 3.598847e-05 0.002567628)
(9.033849e-06 0.000107031 0.007689469)
(8.383401e-06 -4.652792e-06 0.002728801)
(8.930228e-06 -1.413677e-05 0.008179612)
(8.382687e-06 4.624368e-06 0.002728764)
(8.929662e-06 1.404385e-05 0.008179501)
(8.359133e-06 -3.608204e-05 0.002567536)
(9.034016e-06 -0.0001073253 0.007689192)
(8.130552e-06 -4.295357e-05 0.001874589)
(8.139656e-06 -0.0001280509 0.005590797)
(8.131152e-06 3.978476e-05 0.001872704)
(8.139038e-06 0.0001189452 0.005585176)
(8.357742e-06 3.290731e-05 0.002568959)
(9.013366e-06 9.808849e-05 0.007693516)
(8.385874e-06 -3.952631e-06 0.002727444)
(8.920963e-06 -1.198622e-05 0.008175673)
(8.37556e-06 5.811986e-06 0.002727854)
(8.873242e-06 1.751322e-05 0.008176942)
(8.360802e-06 -2.213511e-05 0.002569245)
(8.96764e-06 -6.587977e-05 0.007694575)
(8.135837e-06 -2.607773e-05 0.001868373)
(8.128731e-06 -7.788467e-05 0.005572362)
(8.142542e-06 6.01063e-05 0.001866451)
(8.167311e-06 0.000179241 0.005566628)
(8.369003e-06 4.457139e-05 0.002553314)
(9.094631e-06 0.0001327935 0.007646564)
(8.396254e-06 -5.101985e-06 0.00271826)
(8.970748e-06 -1.517736e-05 0.008148369)
(8.417779e-06 7.112956e-06 0.00272717)
(8.950352e-06 2.163901e-05 0.008175531)
(8.386546e-06 -2.327023e-05 0.002574418)
(9.006778e-06 -6.936834e-05 0.007710731)
(8.158987e-06 -2.189849e-05 0.001870486)
(8.134228e-06 -6.584794e-05 0.005578896)
(8.169746e-06 6.155332e-05 0.00186519)
(8.205998e-06 0.0001831501 0.005562917)
(8.399068e-06 4.388211e-05 0.00253559)
(9.160272e-06 0.000130552 0.007592835)
(8.440048e-06 -2.380281e-05 0.002705155)
(9.03861e-06 -7.119831e-05 0.008108594)
(8.438553e-06 -5.030597e-06 0.002731607)
(8.961659e-06 -1.501342e-05 0.008188412)
(8.393103e-06 -4.779351e-05 0.00258113)
(9.06592e-06 -0.0001421179 0.007730478)
(8.143639e-06 -4.910577e-05 0.001866196)
(8.089771e-06 -0.0001464068 0.005565362)
(8.064359e-06 1.262699e-05 0.001642926)
(8.095219e-06 3.783935e-05 0.004893544)
(8.048893e-06 5.047278e-07 0.001551241)
(8.050038e-06 1.464175e-06 0.00461952)
(8.13675e-06 6.770739e-05 0.001757734)
(8.15166e-06 0.0002021688 0.005240871)
(8.364573e-06 6.82694e-05 0.002460495)
(8.950833e-06 0.0002038195 0.007367861)
(8.423972e-06 1.220607e-05 0.002617104)
(8.941199e-06 3.628624e-05 0.007844577)
(8.413289e-06 1.036893e-05 0.002598344)
(8.927554e-06 3.104171e-05 0.007787701)
(8.351298e-06 -5.732994e-05 0.002432119)
(8.923532e-06 -0.000170846 0.007281985)
(8.155526e-06 -6.652924e-05 0.001757937)
(8.208734e-06 -0.0001979286 0.005241726)
(8.152e-06 1.557826e-06 0.001756389)
(8.142153e-06 5.595381e-06 0.005237301)
(8.322714e-06 1.414354e-05 0.002472864)
(8.62781e-06 4.289023e-05 0.007405528)
(8.371778e-06 7.012615e-06 0.002626042)
(8.690864e-06 2.071924e-05 0.007872183)
(8.366163e-06 8.83845e-06 0.002616024)
(8.787764e-06 2.604966e-05 0.007841343)
(8.313669e-06 -3.866875e-05 0.002461348)
(8.779416e-06 -0.0001157482 0.007369934)
(8.133635e-06 -4.423747e-05 0.001758871)
(8.160182e-06 -0.0001324236 0.00524434)
(8.130785e-06 2.460666e-05 0.001760584)
(8.13278e-06 7.348921e-05 0.005249429)
(8.313295e-06 2.588469e-05 0.002470093)
(8.699419e-06 7.74745e-05 0.00739636)
(8.350716e-06 1.285301e-06 0.002632323)
(8.704615e-06 3.847742e-06 0.007890205)
(8.355431e-06 5.220081e-06 0.002633988)
(8.745585e-06 1.54535e-05 0.007895002)
(8.30535e-06 -3.076777e-05 0.002472402)
(8.724649e-06 -9.20446e-05 0.007403045)
(8.123047e-06 -3.082381e-05 0.001764907)
(8.130695e-06 -9.213266e-05 0.005262332)
(8.127378e-06 3.946704e-05 0.001764512)
(8.153735e-06 0.0001179918 0.00526122)
(8.309944e-06 3.644021e-05 0.002466229)
(8.760371e-06 0.0001091076 0.007384747)
(8.356603e-06 3.116084e-08 0.002629036)
(8.770493e-06 1.520411e-07 0.007880443)
(8.355932e-06 -8.733853e-08 0.00262898)
(8.770765e-06 -3.087418e-07 0.007880269)
(8.30842e-06 -3.65914e-05 0.002466108)
(8.760302e-06 -0.0001095618 0.007384381)
(8.126107e-06 -3.974938e-05 0.001764477)
(8.152898e-06 -0.000118843 0.005261124)
(8.130079e-06 3.058696e-05 0.001764878)
(8.137758e-06 9.141281e-05 0.005262254)
(8.312301e-06 3.05714e-05 0.002472457)
(8.729851e-06 9.145287e-05 0.007403225)
(8.360979e-06 -5.298294e-06 0.002634003)
(8.749004e-06 -1.56848e-05 0.007895061)
(8.355853e-06 -1.269571e-06 0.002632219)
(8.709806e-06 -3.806279e-06 0.007889904)
(8.308852e-06 -2.600372e-05 0.002469911)
(8.694043e-06 -7.782077e-05 0.007395821)
(8.143144e-06 -2.479053e-05 0.001760511)
(8.145664e-06 -7.402758e-05 0.005249229)
(8.148174e-06 4.402592e-05 0.001758857)
(8.174341e-06 0.0001318065 0.005244313)
(8.329224e-06 3.857844e-05 0.002461395)
(8.795007e-06 0.0001154946 0.00737009)
(8.380739e-06 -8.954461e-06 0.002616024)
(8.802721e-06 -2.63857e-05 0.007841355)
(8.364214e-06 -7.087406e-06 0.002625867)
(8.684264e-06 -2.09136e-05 0.007871674)
(8.312998e-06 -1.42513e-05 0.002472677)
(8.617704e-06 -4.315559e-05 0.007404984)
(8.142362e-06 -1.741882e-06 0.001756221)
(8.131614e-06 -6.031226e-06 0.005236829)
(8.148747e-06 6.617897e-05 0.00175789)
(8.203662e-06 0.0001970073 0.005241614)
(8.34403e-06 5.719141e-05 0.002431982)
(8.919208e-06 0.0001705055 0.007281626)
(8.391209e-06 -1.134778e-05 0.002598147)
(8.909181e-06 -3.391978e-05 0.007787167)
(8.382023e-06 -1.240675e-05 0.002617916)
(8.893441e-06 -3.688131e-05 0.00784713)
(8.32103e-06 -6.773e-05 0.002460324)
(8.909117e-06 -0.0002022272 0.007367405)
(8.094747e-06 -6.783953e-05 0.001757419)
(8.109722e-06 -0.0002025901 0.005239992)
(8.010126e-06 -1.406481e-07 0.001551053)
(8.011774e-06 -4.034859e-07 0.004619025)
(7.976071e-06 4.568645e-06 0.001501326)
(7.983969e-06 1.370357e-05 0.004470953)
(8.050622e-06 4.257097e-05 0.001697132)
(8.112222e-06 0.0001271506 0.005060224)
(8.252307e-06 3.900852e-05 0.002384326)
(8.59483e-06 0.0001167561 0.007140033)
(8.312909e-06 8.23549e-06 0.002548565)
(8.621036e-06 2.464787e-05 0.007640035)
(8.314741e-06 2.50402e-06 0.002539239)
(8.651123e-06 7.414814e-06 0.007611743)
(8.261234e-06 -4.229369e-05 0.002372364)
(8.633097e-06 -0.0001264379 0.007103589)
(8.097131e-06 -5.510233e-05 0.001700737)
(8.183138e-06 -0.0001642166 0.005071242)
(8.087477e-06 -1.889929e-05 0.001704882)
(8.069311e-06 -5.621036e-05 0.005083536)
(8.236358e-06 -5.64635e-06 0.002412385)
(8.325418e-06 -1.669435e-05 0.007224187)
(8.28852e-06 7.302479e-06 0.00256952)
(8.398941e-06 2.191922e-05 0.007702722)
(8.301568e-06 1.215931e-05 0.002572856)
(8.527644e-06 3.612612e-05 0.007712075)
(8.256412e-06 -1.792465e-05 0.00241439)
(8.510704e-06 -5.367357e-05 0.007229473)
(8.097996e-06 -1.818968e-05 0.001711801)
(8.125603e-06 -5.448997e-05 0.005103873)
(8.097999e-06 1.478249e-05 0.001713513)
(8.127287e-06 4.397852e-05 0.005108977)
(8.257819e-06 1.600969e-05 0.002409331)
(8.47138e-06 4.782436e-05 0.00721441)
(8.306356e-06 1.919061e-06 0.002571443)
(8.50846e-06 5.793222e-06 0.007707857)
(8.321722e-06 2.304285e-06 0.002573014)
(8.539908e-06 6.817665e-06 0.007712534)
(8.270334e-06 -1.810547e-05 0.002416102)
(8.497558e-06 -5.404293e-05 0.007234487)
(8.112987e-06 -1.766075e-05 0.001713816)
(8.144349e-06 -5.249052e-05 0.005109872)
(8.115273e-06 1.685156e-05 0.00171214)
(8.15121e-06 5.056273e-05 0.005104931)
(8.272885e-06 1.706877e-05 0.002407456)
(8.500912e-06 5.13024e-05 0.007208926)
(8.323206e-06 3.749528e-07 0.002568581)
(8.547484e-06 1.210939e-06 0.007699474)
(8.322387e-06 -4.422393e-07 0.002568558)
(8.545897e-06 -1.429334e-06 0.007699398)
(8.271791e-06 -1.718743e-05 0.002407365)
(8.501734e-06 -5.164654e-05 0.007208641)
(8.114228e-06 -1.702869e-05 0.001712159)
(8.150537e-06 -5.109557e-05 0.005104991)
(8.113848e-06 1.749831e-05 0.001713916)
(8.144482e-06 5.199502e-05 0.00511018)
(8.256162e-06 1.799753e-05 0.002416246)
(8.482095e-06 5.370439e-05 0.007234944)
(8.306364e-06 -2.342254e-06 0.002573129)
(8.522299e-06 -6.924068e-06 0.007712883)
(8.305784e-06 -1.945679e-06 0.00257141)
(8.509435e-06 -5.85034e-06 0.007707762)
(8.255819e-06 -1.628409e-05 0.002409227)
(8.470053e-06 -4.862243e-05 0.00721411)
(8.096676e-06 -1.510528e-05 0.00171354)
(8.126311e-06 -4.492294e-05 0.005109075)
(8.092726e-06 1.782269e-05 0.001711769)
(8.12025e-06 5.34106e-05 0.005103797)
(8.252118e-06 1.769098e-05 0.002414528)
(8.506471e-06 5.29882e-05 0.007229904)
(8.301863e-06 -1.223777e-05 0.002572742)
(8.527745e-06 -3.635643e-05 0.007711758)
(8.287127e-06 -7.471225e-06 0.002569595)
(8.397029e-06 -2.239884e-05 0.007702953)
(8.234135e-06 5.594911e-06 0.002412305)
(8.321182e-06 1.659293e-05 0.007223956)
(8.086079e-06 1.892135e-05 0.001705108)
(8.067555e-06 5.637289e-05 0.00508421)
(8.097989e-06 5.498071e-05 0.001700911)
(8.184575e-06 0.0001639622 0.005071751)
(8.261835e-06 4.221791e-05 0.002372833)
(8.633613e-06 0.0001262732 0.007104969)
(8.315112e-06 -2.419837e-06 0.002539754)
(8.651375e-06 -7.159108e-06 0.00761325)
(8.309322e-06 -8.202867e-06 0.002548293)
(8.617638e-06 -2.455882e-05 0.00763902)
(8.25418e-06 -3.898715e-05 0.002384618)
(8.597452e-06 -0.0001166986 0.007140866)
(8.051776e-06 -4.248254e-05 0.001697765)
(8.112203e-06 -0.0001269108 0.005062092)
(7.974272e-06 -4.46091e-06 0.00150172)
(7.981739e-06 -1.339824e-05 0.004472118)
(7.949798e-06 2.773636e-06 0.001459366)
(7.951309e-06 8.404392e-06 0.0043451)
(8.028361e-06 2.970581e-05 0.00165394)
(8.068624e-06 8.882449e-05 0.004930572)
(8.228624e-06 2.403698e-05 0.002354985)
(8.42667e-06 7.196696e-05 0.007051625)
(8.293733e-06 6.243183e-06 0.002521499)
(8.451193e-06 1.874945e-05 0.007558711)
(8.29401e-06 6.22915e-06 0.002513759)
(8.472874e-06 1.847524e-05 0.00753501)
(8.241618e-06 -1.920183e-05 0.002351494)
(8.446863e-06 -5.772006e-05 0.007040809)
(8.091803e-06 -2.651889e-05 0.001664264)
(8.147439e-06 -7.953451e-05 0.004961697)
(8.087238e-06 -1.350116e-06 0.001671998)
(8.074113e-06 -4.393349e-06 0.004984648)
(8.238412e-06 5.959714e-06 0.002373772)
(8.345266e-06 1.76174e-05 0.0071078)
(8.288736e-06 3.750275e-06 0.002536031)
(8.384155e-06 1.133626e-05 0.007601802)
(8.296408e-06 1.044495e-05 0.002543206)
(8.47275e-06 3.131435e-05 0.007623145)
(8.244469e-06 -1.603898e-05 0.002386284)
(8.450879e-06 -4.797878e-05 0.007145017)
(8.074155e-06 -1.71907e-05 0.001680239)
(8.092713e-06 -5.146764e-05 0.005009097)
(8.073613e-06 5.748532e-06 0.001677722)
(8.096067e-06 1.707412e-05 0.005001604)
(8.222994e-06 7.878894e-06 0.002382239)
(8.337574e-06 2.357391e-05 0.007132883)
(8.272443e-06 2.975588e-06 0.002548524)
(8.380572e-06 8.868089e-06 0.007639133)
(8.275838e-06 5.477614e-06 0.002554984)
(8.405625e-06 1.621058e-05 0.007658255)
(8.216014e-06 -1.20283e-05 0.002390674)
(8.365273e-06 -3.582042e-05 0.007157817)
(8.067991e-06 -1.329064e-05 0.00167965)
(8.084058e-06 -3.942679e-05 0.005007192)
(8.068918e-06 9.402925e-06 0.001677763)
(8.097911e-06 2.83456e-05 0.005001616)
(8.21821e-06 6.497025e-06 0.002383842)
(8.345542e-06 1.975188e-05 0.007137672)
(8.267096e-06 3.3667e-07 0.002545002)
(8.379171e-06 1.058389e-06 0.007628754)
(8.266336e-06 -2.17708e-07 0.00254489)
(8.379388e-06 -7.073579e-07 0.007628419)
(8.215793e-06 -6.685038e-06 0.002383715)
(8.342961e-06 -2.030529e-05 0.00713729)
(8.067891e-06 -9.585064e-06 0.001677758)
(8.097215e-06 -2.886522e-05 0.0050016)
(8.069264e-06 1.305339e-05 0.001679609)
(8.085523e-06 3.874147e-05 0.005007086)
(8.218531e-06 1.190817e-05 0.002390723)
(8.368727e-06 3.545499e-05 0.007157988)
(8.274755e-06 -5.44153e-06 0.00255493)
(8.400381e-06 -1.611221e-05 0.007658127)
(8.271447e-06 -3.091746e-06 0.002548377)
(8.380193e-06 -9.198176e-06 0.007638709)
(8.22126e-06 -8.091903e-06 0.002382031)
(8.336967e-06 -2.419618e-05 0.007132268)
(8.072375e-06 -6.139496e-06 0.001677614)
(8.09529e-06 -1.82345e-05 0.005001289)
(8.07549e-06 1.687792e-05 0.001680096)
(8.093995e-06 5.053421e-05 0.00500868)
(8.245698e-06 1.568755e-05 0.002386208)
(8.450116e-06 4.695283e-05 0.007144808)
(8.296547e-06 -1.022917e-05 0.002542995)
(8.469188e-06 -3.066356e-05 0.007622533)
(8.288188e-06 -3.444834e-06 0.002535377)
(8.385377e-06 -1.041838e-05 0.007599833)
(8.236932e-06 -5.896362e-06 0.002373537)
(8.344247e-06 -1.739021e-05 0.007107102)
(8.085787e-06 1.521436e-06 0.001671932)
(8.072772e-06 4.975562e-06 0.004984445)
(8.092682e-06 2.66899e-05 0.001664402)
(8.148601e-06 8.011311e-05 0.0049621)
(8.243062e-06 1.95852e-05 0.002351802)
(8.450181e-06 5.889176e-05 0.007041694)
(8.293924e-06 -6.292446e-06 0.002514567)
(8.476231e-06 -1.864072e-05 0.007537405)
(8.289778e-06 -6.759006e-06 0.002522503)
(8.44927e-06 -2.027181e-05 0.007561699)
(8.223017e-06 -2.426285e-05 0.002355368)
(8.419911e-06 -7.262767e-05 0.007052763)
(8.023212e-06 -2.968442e-05 0.001654124)
(8.063705e-06 -8.875342e-05 0.004931095)
(7.948267e-06 -2.821432e-06 0.001459485)
(7.949751e-06 -8.551806e-06 0.004345444)
(7.924859e-06 2.215498e-06 0.001433516)
(7.928811e-06 6.705159e-06 0.00426806)
(7.999419e-06 1.777659e-05 0.001627876)
(8.029193e-06 5.314943e-05 0.004852808)
(8.183178e-06 1.531297e-05 0.002332885)
(8.302241e-06 4.577459e-05 0.006985509)
(8.246799e-06 4.622417e-06 0.002497005)
(8.347054e-06 1.384746e-05 0.007485399)
(8.246168e-06 5.408294e-06 0.002496457)
(8.349635e-06 1.605479e-05 0.007483637)
(8.192868e-06 -1.031575e-05 0.00233357)
(8.325363e-06 -3.093122e-05 0.006987427)
(8.047526e-06 -1.445009e-05 0.001633979)
(8.080843e-06 -4.335427e-05 0.004871442)
(8.046144e-06 1.64486e-06 0.001640379)
(8.0541e-06 4.682926e-06 0.004890545)
(8.193599e-06 5.741028e-06 0.002338688)
(8.269213e-06 1.707517e-05 0.007003109)
(8.251634e-06 5.63118e-06 0.002499537)
(8.352672e-06 1.678179e-05 0.007492952)
(8.251907e-06 8.578901e-07 0.002513175)