/*--------------------------------*- C++ -*----------------------------------*\
| =========                 |                                                 |
| \\      /  F ield         | OpenFOAM: The Open Source CFD Toolbox           |
|  \\    /   O peration     | Version:  4.0                                   |
|   \\  /    A nd           | Web:      www.OpenFOAM.org                      |
|    \\/     M anipulation  |                                                 |
\*---------------------------------------------------------------------------*/
FoamFile
{
    version     2.0;
    format      ascii;
    class       volVectorField;
    location    "60/fuel";
    object      U;
}
// * * * * * * * * * * * * * * * * * * * * * * * * * * * * * * * * * * * * * //

dimensions      [0 1 -1 0 0 0 0];

internalField   nonuniform List<vector> 
39776
(
(8.964706e-06 0.01612403 -0.02803172)
(9.848648e-08 0.0478854 -0.08442477)
(1.470839e-05 0.02451901 -0.007496106)
(9.79824e-05 0.07260378 -0.0227341)
(2.175073e-05 0.01076905 -0.03113177)
(0.0002127258 0.0319658 -0.09223906)
(1.215961e-05 -0.002151875 -0.04125913)
(0.0001206577 -0.00598979 -0.1221034)
(1.127028e-05 0.00552025 -0.04062724)
(9.01684e-05 0.0164912 -0.1194996)
(1.1636e-05 -0.00502003 -0.0478066)
(0.0001607142 -0.01491081 -0.1414105)
(2.113301e-05 0.0002782297 -0.04414445)
(0.0001393274 0.001209453 -0.1311651)
(1.880605e-05 0.00689479 -0.04138218)
(0.0001528658 0.02020764 -0.1227184)
(1.72368e-05 0.003724471 -0.05516343)
(0.0002156099 0.01113207 -0.1634187)
(7.214303e-06 -0.005940917 -0.04630069)
(9.978247e-05 -0.01730178 -0.1358785)
(9.613528e-06 0.00479559 -0.04789886)
(0.000105125 0.01405025 -0.1407176)
(1.52643e-05 -0.006106275 -0.05650019)
(0.0002128999 -0.01802578 -0.1672702)
(2.148206e-05 -0.003632334 -0.04714572)
(0.0001553984 -0.01039482 -0.1399406)
(2.075503e-05 0.00414575 -0.04572223)
(0.0001517467 0.01191849 -0.1358104)
(1.590463e-05 0.004491192 -0.05624572)
(0.0002121024 0.01337674 -0.1666869)
(7.449452e-06 -0.006078083 -0.04679208)
(9.773545e-05 -0.01783622 -0.1371209)
(6.582174e-06 0.005486433 -0.04807031)
(9.791749e-05 0.01608526 -0.1411076)
(1.588157e-05 -0.005703132 -0.05735542)
(0.0002164352 -0.01681094 -0.1699023)
(2.405603e-05 -0.003942863 -0.04719971)
(0.0001626988 -0.0113745 -0.1401439)
(1.857752e-05 0.004017897 -0.04658228)
(0.0001445895 0.0115114 -0.1383219)
(1.4812e-05 0.005180305 -0.05643929)
(0.0002094594 0.01545133 -0.167199)
(9.407811e-06 -0.005776161 -0.04764891)
(0.0001066796 -0.01687063 -0.1397561)
(9.146935e-06 0.005770334 -0.04763091)
(0.000106103 0.01684744 -0.1397026)
(1.473526e-05 -0.005160963 -0.05644705)
(0.000209277 -0.01539415 -0.1672262)
(1.89232e-05 -0.004033983 -0.04658474)
(0.0001457244 -0.01156789 -0.1383366)
(2.405341e-05 0.003921655 -0.04720181)
(0.000162427 0.01130408 -0.1401522)
(1.585062e-05 0.00569884 -0.05737675)
(0.0002163998 0.016796 -0.1699705)
(6.655066e-06 -0.005498116 -0.04810757)
(9.828829e-05 -0.01612307 -0.141223)
(7.418133e-06 0.006076221 -0.04685785)
(9.780886e-05 0.01783299 -0.1373234)
(1.600423e-05 -0.004518569 -0.05617695)
(0.0002122386 -0.01346406 -0.1664857)
(2.089988e-05 -0.004086 -0.04572024)
(0.0001518692 -0.01175336 -0.135806)
(2.138731e-05 0.003671478 -0.04714107)
(0.000155396 0.01049651 -0.1399212)
(1.516275e-05 0.006074098 -0.05649199)
(0.0002125854 0.0179252 -0.1672367)
(9.872789e-06 -0.004798823 -0.04789999)
(0.0001054528 -0.01406278 -0.1407126)
(7.255394e-06 0.005921481 -0.046209)
(9.955769e-05 0.0172406 -0.1355878)
(1.720458e-05 -0.003771955 -0.05514069)
(0.0002156409 -0.01127662 -0.1633542)
(1.866431e-05 -0.006947381 -0.04135208)
(0.0001518424 -0.02035767 -0.1226322)
(2.105521e-05 -0.0002723403 -0.04417594)
(0.0001393558 -0.001186772 -0.1312547)
(1.176563e-05 0.005022892 -0.04783087)
(0.0001611811 0.01491675 -0.1414823)
(1.110771e-05 -0.005533208 -0.0406091)
(8.950764e-05 -0.01651409 -0.1194466)
(1.158936e-05 0.002154937 -0.04124478)
(0.0001192393 0.006001656 -0.1220681)
(2.225639e-05 -0.01077737 -0.0311134)
(0.0002152575 -0.03202047 -0.09218524)
(1.472128e-05 -0.02451298 -0.007519076)
(9.701669e-05 -0.07260657 -0.02279282)
(8.333611e-06 -0.0161231 -0.02804093)
(-1.673244e-06 -0.04788095 -0.08444597)
(1.899737e-05 0.01967204 -0.05235989)
(0.0001136665 0.05794809 -0.155305)
(3.446404e-05 -0.04248302 -0.01660411)
(0.0005417843 -0.126352 -0.04793376)
(-1.621604e-05 -0.06535459 9.789358e-05)
(-0.0001521546 -0.1926142 0.00372906)
(-5.486076e-05 -0.03595151 0.009825685)
(-0.0004256895 -0.1059939 0.0324232)
(-4.103015e-05 -0.002478614 0.01272584)
(-0.0003891137 -0.007300409 0.04118863)
(-4.247271e-05 0.01832253 0.008420714)
(-0.0003217874 0.05368641 0.02871353)
(1.711876e-05 0.02701752 -0.03930463)
(0.0001261786 0.08032185 -0.1148265)
(2.731287e-05 -0.03191057 -0.03109154)
(0.0002885003 -0.09468493 -0.08969535)
(-2.888053e-05 -0.04273408 0.006776932)
(-0.00024695 -0.1265825 0.0243044)
(-5.260595e-05 -0.02020063 0.01236775)
(-0.0004541777 -0.05998448 0.04079094)
(-5.016231e-05 0.01477486 0.01041239)
(-0.000434189 0.04388653 0.03489651)
(-3.445504e-05 0.0302094 0.005195175)
(-0.0002729159 0.08917416 0.01969897)
(2.347125e-05 0.03137397 -0.03899308)
(0.0001892323 0.09312019 -0.1135068)
(2.204559e-05 -0.03097508 -0.03475824)
(0.0002224643 -0.09208816 -0.1008426)
(-2.908886e-05 -0.03734858 0.007405613)
(-0.0002494805 -0.110115 0.02616966)
(-4.473667e-05 -0.01819624 0.01291649)
(-0.0004290379 -0.05392729 0.04228216)
(-4.342677e-05 0.01739839 0.01169746)
(-0.0004187435 0.05165733 0.03866822)
(-3.404078e-05 0.03293495 0.00625909)
(-0.0002651176 0.0972349 0.02283906)
(2.383487e-05 0.03171212 -0.03747408)
(0.0002002966 0.09423139 -0.1089161)
(2.369125e-05 -0.03080571 -0.03632736)
(0.0002149034 -0.09152194 -0.1055088)
(-2.79209e-05 -0.03521282 0.006858563)
(-0.0002448708 -0.1039409 0.02456053)
(-4.67508e-05 -0.01787769 0.01238542)
(-0.0004327431 -0.05310276 0.04072127)
(-4.617888e-05 0.01791252 0.01239328)
(-0.0004314227 0.05320408 0.04074259)
(-2.755025e-05 0.03521116 0.006854241)
(-0.0002435613 0.1039186 0.02454538)
(2.363452e-05 0.03078929 -0.036321)
(0.000214351 0.09146642 -0.1055003)
(2.373903e-05 -0.03168326 -0.0374857)
(0.0002004012 -0.09415137 -0.1089473)
(-3.408478e-05 -0.03298579 0.00620551)
(-0.000265096 -0.09740224 0.02268588)
(-4.396943e-05 -0.01742103 0.01164205)
(-0.0004198676 -0.05173031 0.03851519)
(-4.485976e-05 0.01812221 0.01288171)
(-0.000429047 0.05371027 0.04218891)
(-2.909891e-05 0.03730352 0.007376661)
(-0.0002496951 0.1099793 0.02608891)
(2.197698e-05 0.03099234 -0.03477166)
(0.0002220481 0.09213877 -0.1008978)
(2.355618e-05 -0.03136658 -0.03899717)
(0.0001894447 -0.09309602 -0.1135079)
(-3.384394e-05 -0.03017934 0.005213677)
(-0.0002712365 -0.08908345 0.01975756)
(-5.2628e-05 -0.01481732 0.01045062)
(-0.0004391692 -0.04401563 0.0350182)
(-5.152959e-05 0.02031725 0.01251331)
(-0.0004522311 0.06030945 0.04121026)
(-2.844494e-05 0.04279394 0.006854573)
(-0.0002449688 0.1267324 0.02452356)
(2.728929e-05 0.03180757 -0.03106881)
(0.0002885572 0.09437832 -0.08963974)
(1.699512e-05 -0.02711973 -0.03936488)
(0.0001252718 -0.0806191 -0.1149956)
(-4.249048e-05 -0.01826081 0.008429962)
(-0.0003218145 -0.05351031 0.02874674)
(-4.095426e-05 0.002468428 0.01271235)
(-0.0003890248 0.007266463 0.04114183)
(-5.419726e-05 0.03602516 0.009819322)
(-0.000424077 0.1062166 0.03239974)
(-1.886769e-05 0.06530896 6.2453e-05)
(-0.0001580716 0.192493 0.003611116)
(3.496175e-05 0.04240212 -0.01660278)
(0.0005427835 0.1261116 -0.04792829)
(1.948297e-05 -0.01965023 -0.05233134)
(0.0001146199 -0.05789168 -0.1552162)
(9.215657e-06 0.01069847 -0.04218776)
(-4.846062e-05 0.03092939 -0.1239049)
(7.054513e-06 -0.03848504 -0.005225653)
(0.0002053608 -0.1143876 -0.01259159)
(-2.11567e-05 -0.04385535 0.03530823)
(-0.0003215301 -0.1296249 0.1078414)
(-3.127411e-05 -0.004525271 0.03993135)
(-0.0002447492 -0.01354755 0.1207959)
(-5.633207e-06 -0.00686178 0.03759977)
(-8.940855e-05 -0.02012493 0.1134423)
(-1.2114e-05 -0.001406645 0.03692444)
(-0.0001501041 -0.004181024 0.1114828)
(-4.480068e-06 0.00650805 -0.005270421)
(-0.0001012119 0.01906064 -0.0148029)
(-5.321327e-07 -0.01829445 0.00213206)
(-3.630305e-05 -0.05461066 0.007802615)
(-1.70194e-05 -0.01359339 0.04701961)
(-0.0002322038 -0.04059079 0.142036)
(-1.558163e-05 0.0009347228 0.05089012)
(-0.0001288354 0.002472233 0.1530357)
(-9.164573e-06 -0.00427435 0.04919835)
(-9.576863e-05 -0.01238948 0.1479478)
(-1.647949e-05 0.003703182 0.04504629)
(-0.0002063636 0.01081747 0.1359203)
(-3.448998e-06 0.01226977 0.000278471)
(-9.748381e-05 0.03656444 0.001714437)
(-4.554717e-06 -0.01337858 0.002920148)
(-6.467932e-05 -0.03977677 0.01008755)
(-1.654152e-05 -0.008820114 0.04647706)
(-0.0002065473 -0.02632235 0.1403711)
(-9.245074e-06 0.001221958 0.05079237)
(-9.943204e-05 0.003435289 0.1528978)
(-1.002292e-05 -0.003084612 0.05062331)
(-9.801472e-05 -0.008969754 0.1522677)
(-1.455397e-05 0.004979744 0.0460586)
(-0.000204706 0.01461277 0.1390385)
(-6.66204e-06 0.01333736 0.002009767)
(-9.627822e-05 0.03966647 0.006993811)
(-4.430921e-06 -0.01327787 0.002427729)
(-7.624221e-05 -0.03944852 0.008495249)
(-1.734221e-05 -0.006606457 0.04609504)
(-0.0002092991 -0.01970315 0.1392254)
(-8.451109e-06 0.001829251 0.05049645)
(-9.515643e-05 0.005281896 0.1520345)
(-8.376724e-06 -0.001840964 0.05050585)
(-9.511991e-05 -0.005325811 0.1520654)
(-1.724771e-05 0.006632528 0.04608367)
(-0.0002091272 0.01976296 0.1391983)
(-4.651903e-06 0.0132787 0.002403089)
(-7.674531e-05 0.03944442 0.008416621)
(-6.605351e-06 -0.01335152 0.001971513)
(-9.591906e-05 -0.03971831 0.006883103)
(-1.480135e-05 -0.00497036 0.04603049)
(-0.0002053353 -0.01459736 0.1389568)
(-1.00716e-05 0.0030746 0.05060411)
(-9.84182e-05 0.008934452 0.1522126)
(-9.143091e-06 -0.00118765 0.05067297)
(-9.914269e-05 -0.003342569 0.1525506)
(-1.648444e-05 0.008775829 0.0463602)
(-0.000205739 0.02619217 0.1400271)
(-4.510723e-06 0.01329398 0.002923404)
(-6.467909e-05 0.03953095 0.01009274)
(-3.542462e-06 -0.01227789 0.0002430993)
(-9.793532e-05 -0.03660022 0.001611177)
(-1.731333e-05 -0.003647922 0.04503788)
(-0.0002085273 -0.01066318 0.1358968)
(-7.525041e-06 0.004279471 0.04918782)
(-9.20508e-05 0.01240676 0.1479087)
(-1.618507e-05 -0.0009049867 0.05104514)
(-0.000130211 -0.002381916 0.1534931)
(-1.710452e-05 0.01370472 0.04712701)
(-0.0002327923 0.04091689 0.1423551)
(-5.6523e-07 0.01831917 0.002166239)
(-3.509251e-05 0.05467833 0.007912892)
(-4.149632e-06 -0.006605879 -0.005324971)
(-0.0001006337 -0.01935618 -0.01497411)
(-1.225317e-05 0.001457845 0.03687107)
(-0.0001506314 0.004331874 0.1113259)
(-5.471053e-06 0.006872527 0.03758297)
(-8.885027e-05 0.02014902 0.1133916)
(-3.225598e-05 0.004533538 0.03996188)
(-0.0002469774 0.01357168 0.1208767)
(-2.007186e-05 0.04384426 0.03532666)
(-0.0003195982 0.1296005 0.1078874)
(7.132984e-06 0.03849299 -0.005187708)
(0.0002056726 0.1144168 -0.01248936)
(9.159979e-06 -0.0106908 -0.04215129)
(-4.860004e-05 -0.03091074 -0.1238024)
(-6.536326e-06 0.004435653 0.001239973)
(-0.0001217512 0.01290596 0.004811041)
(-2.769808e-06 -0.01305376 0.02698899)
(-4.469779e-05 -0.03951691 0.08249616)
(-1.516014e-05 -0.01201988 0.06538333)
(-0.0001511929 -0.03635375 0.1964994)
(-9.247224e-06 0.005973889 0.05760712)
(-7.065108e-05 0.01765049 0.1729913)
(4.350616e-06 -0.000668144 0.04990585)
(1.612667e-05 -0.001795604 0.1494356)
(6.622646e-07 -0.001612016 0.05709999)
(-3.095067e-05 -0.004572136 0.1710976)
(-4.650891e-08 0.004928568 0.02662601)
(-4.168814e-05 0.01442904 0.07999262)
(-8.43712e-06 -0.007840653 0.03396821)
(-5.103476e-05 -0.02387708 0.1017771)
(-9.079675e-06 -0.004995749 0.06662529)
(-8.039149e-05 -0.01478959 0.1995391)
(1.102094e-06 0.002082554 0.06111872)
(-1.286565e-06 0.006167364 0.1828995)
(4.380258e-06 -0.003806608 0.05896434)
(1.624993e-05 -0.01126312 0.1764264)
(-5.247337e-06 -0.0007205965 0.0644867)
(-5.656862e-05 -0.00221211 0.1930481)
(-5.074585e-06 0.003622331 0.03273004)
(-5.704622e-05 0.01110867 0.09790531)
(-8.487143e-07 -0.007248696 0.03468671)
(-4.05487e-05 -0.02173048 0.1041763)
(-5.311664e-06 -0.001297838 0.06576531)
(-6.354657e-05 -0.00414639 0.1970504)
(3.363421e-06 0.002158702 0.05979805)
(1.042306e-05 0.006258378 0.1789655)
(9.303488e-07 -0.002861753 0.05977615)
(7.3808e-06 -0.008500556 0.1788719)
(-2.084147e-06 0.0001317523 0.06572676)
(-5.15716e-05 0.0003676513 0.1968462)
(-4.663828e-06 0.005126268 0.03424126)
(-5.373029e-05 0.01557644 0.1025484)
(-1.920536e-06 -0.00646159 0.03452548)
(-4.502479e-05 -0.01937214 0.103574)
(-7.482378e-06 7.859811e-05 0.06541289)
(-6.712429e-05 0.0001294825 0.1959586)
(2.857379e-06 0.002105516 0.05961199)
(1.12573e-05 0.006140508 0.1784091)
(2.860741e-06 -0.002096923 0.05961041)
(1.11532e-05 -0.006119381 0.1784107)
(-7.400555e-06 -2.384226e-06 0.06541803)
(-6.678547e-05 8.402095e-05 0.1959733)
(-2.127788e-06 0.00642274 0.03458449)
(-4.520878e-05 0.0192349 0.1037498)
(-4.976962e-06 -0.005167289 0.0341867)
(-5.522099e-05 -0.01571075 0.10239)
(-3.577856e-06 -8.733117e-05 0.06571152)
(-5.595379e-05 -0.0002350203 0.1968019)
(1.03178e-06 0.002886558 0.05973962)
(7.673104e-06 0.008565685 0.1787682)
(2.772434e-06 -0.002102905 0.05974794)
(8.801921e-06 -0.006097333 0.1788162)
(-5.376545e-06 0.001312254 0.06563998)
(-6.326896e-05 0.004172765 0.1966757)
(-8.983486e-07 0.007241424 0.03465972)
(-4.043105e-05 0.02170976 0.1040858)
(-4.85714e-06 -0.003645861 0.03273771)
(-5.625866e-05 -0.0111847 0.09792593)
(-4.972362e-06 0.0007114663 0.06445239)
(-5.59813e-05 0.002179363 0.1929454)
(4.321325e-06 0.003782419 0.05892043)
(1.59746e-05 0.01119296 0.1762963)
(9.334698e-07 -0.002109323 0.061128)
(-1.785878e-06 -0.006241546 0.1829328)
(-8.663679e-06 0.005040392 0.06670394)
(-7.906199e-05 0.01493427 0.1997811)
(-8.153128e-06 0.007885835 0.03396678)
(-4.995202e-05 0.02400308 0.1017783)
(-1.616655e-07 -0.004956995 0.02657729)
(-4.238774e-05 -0.01452594 0.07984793)
(5.94425e-07 0.001641794 0.05710164)
(-3.147092e-05 0.004669893 0.1711027)
(4.550736e-06 0.0006806619 0.04987899)
(1.694054e-05 0.001835235 0.1493535)
(-9.408164e-06 -0.005962583 0.05761463)
(-7.099479e-05 -0.01762083 0.1730139)
(-1.506189e-05 0.01205492 0.06538383)
(-0.0001512134 0.03645803 0.1964983)
(-2.762697e-06 0.01308325 0.02699124)
(-4.434313e-05 0.0396061 0.08249652)
(-6.53321e-06 -0.004435492 0.0012332)
(-0.0001216602 -0.01290714 0.004786427)
(-2.872683e-06 0.002569672 0.02245781)
(-6.890138e-05 0.007542421 0.06730422)
(-4.497935e-07 -0.002782531 0.04739898)
(-4.734438e-05 -0.008914808 0.1423553)
(-2.568432e-06 -0.001201232 0.0697926)
(-3.004462e-05 -0.00413706 0.2092691)
(2.177533e-06 0.006058977 0.05900967)
(3.117237e-06 0.01799589 0.1768306)
(1.098208e-05 -0.0008657472 0.04952001)
(5.76882e-05 -0.002421777 0.1481218)
(5.259368e-06 -0.004846142 0.05521549)
(1.382791e-05 -0.01439198 0.1653116)
(1.697523e-06 -0.0003358772 0.02998356)
(-3.909749e-05 -0.0009876359 0.08954492)
(1.951545e-06 -0.0004305419 0.03880264)
(-3.039531e-05 -0.001566086 0.1161821)
(3.777466e-06 0.0006017395 0.06398321)
(3.486725e-06 0.001635777 0.1917492)
(7.420837e-06 0.002317942 0.05775513)
(3.66369e-05 0.006926402 0.1730115)
(1.030657e-05 -0.003384181 0.05590134)
(4.945724e-05 -0.01015196 0.1674098)
(3.093553e-06 -0.004392366 0.06166789)
(8.859127e-06 -0.01310189 0.1846238)
(-6.018158e-07 -0.002508626 0.03621411)
(-4.463565e-05 -0.007369173 0.1082355)
(1.399076e-06 -0.0003285138 0.03780015)
(-4.407322e-05 -0.001197528 0.1131354)
(2.780778e-06 0.004181907 0.06304099)
(1.729401e-06 0.01217255 0.1889178)
(8.655072e-06 0.002905302 0.05681093)
(4.440806e-05 0.008534412 0.1700653)
(9.930716e-06 -0.002596913 0.05669764)
(4.808188e-05 -0.007793229 0.169722)
(2.656997e-06 -0.003743667 0.06287059)
(5.936188e-06 -0.01114492 0.1881951)
(-1.213438e-06 -0.00167262 0.0378988)
(-4.42149e-05 -0.004807023 0.1132663)
(1.067639e-06 0.0001525018 0.03778905)
(-4.479507e-05 0.0002341613 0.1130258)
(4.848426e-06 0.004543255 0.06274882)
(8.832579e-06 0.01327913 0.1879939)
(9.207217e-06 0.002825496 0.05655322)
(4.734452e-05 0.008317446 0.1692197)
(9.104087e-06 -0.002817077 0.0565283)
(4.706793e-05 -0.008296437 0.1691479)
(4.79385e-06 -0.004538719 0.06274146)
(9.066322e-06 -0.01326127 0.1879745)
(1.20373e-06 -0.0001577351 0.03780906)
(-4.42586e-05 -0.0002636157 0.1130932)
(-9.064405e-07 0.001678515 0.03788886)
(-4.364838e-05 0.00480881 0.1132359)
(3.57952e-06 0.003762302 0.0628908)
(8.390488e-06 0.01119028 0.1882584)
(1.006343e-05 0.002636675 0.05670258)
(4.826701e-05 0.007910701 0.169741)
(9.022631e-06 -0.002868774 0.05678)
(4.545985e-05 -0.008430896 0.1699702)
(2.967994e-06 -0.004134129 0.06295222)
(2.178765e-06 -0.01204114 0.1886455)
(1.476683e-06 0.0002708742 0.03779276)
(-4.375659e-05 0.001021397 0.1131009)
(-7.648191e-07 0.002444558 0.03614858)
(-4.528224e-05 0.007177611 0.1080455)
(2.665264e-06 0.004398916 0.06164435)
(7.67544e-06 0.01311478 0.1845584)
(1.025677e-05 0.003366937 0.05586354)
(4.943974e-05 0.0100978 0.1672955)
(7.485538e-06 -0.002332578 0.05778694)
(3.680611e-05 -0.006972355 0.1731109)
(3.709542e-06 -0.0005905507 0.06404124)
(3.051741e-06 -0.001601099 0.1919295)
(1.874412e-06 0.0004801397 0.0388388)
(-3.050869e-05 0.001712122 0.1162951)
(1.716905e-06 0.0003588869 0.02995744)
(-3.888976e-05 0.00104773 0.08946378)
(5.159309e-06 0.004865617 0.05519038)
(1.346828e-05 0.01444474 0.1652342)
(1.105347e-05 0.0008815772 0.04951141)
(5.772964e-05 0.002471882 0.1480934)
(2.08246e-06 -0.006037716 0.05903728)
(2.936513e-06 -0.01792988 0.1769104)
(-2.508365e-06 0.001214539 0.06979271)
(-2.988254e-05 0.00417816 0.2092681)
(-4.948405e-07 0.002788923 0.04739163)
(-4.734366e-05 0.008935646 0.1423319)
(-2.855877e-06 -0.002569139 0.02244859)
(-6.885922e-05 -0.00754179 0.06727596)
(-1.118427e-06 0.001398326 0.03055318)
(-4.555804e-05 0.004154684 0.09130942)
(8.434709e-07 0.002914205 0.05383506)
(-4.194627e-05 0.00817803 0.1614026)
(1.931798e-06 0.004930651 0.06806352)
(7.179062e-06 0.0142792 0.2040698)
(6.634111e-06 0.0065988 0.05932486)
(2.360812e-05 0.01956338 0.1776939)
(7.861755e-06 0.001210025 0.04961267)
(4.163544e-05 0.003456364 0.1484012)
(4.329943e-06 -0.001227885 0.05554222)
(5.736245e-06 -0.00374965 0.1662917)
(1.470282e-06 -3.213582e-05 0.03457444)
(-3.039189e-06 7.652989e-05 0.1031415)
(3.245215e-06 -0.0009136797 0.04379968)
(-1.357948e-05 -0.002786448 0.1311067)
(4.388795e-06 0.001484476 0.06256826)
(8.895835e-06 0.004184572 0.1874799)
(6.532078e-06 0.001588749 0.05673688)
(2.408549e-05 0.004725494 0.1699462)
(7.675198e-06 -0.001104551 0.05452301)
(3.047165e-05 -0.003444654 0.1633716)
(4.44822e-06 -0.002070065 0.06023798)
(1.495365e-05 -0.006192895 0.1804682)
(2.268662e-06 -0.001154697 0.04068977)
(-7.821908e-06 -0.003563697 0.1215977)
(4.872943e-07 -0.0002512684 0.04157354)
(-2.415526e-05 -0.0009610536 0.1242783)
(3.46575e-06 0.002823829 0.06161021)
(4.482386e-06 0.008413976 0.1845877)
(6.746019e-06 0.00197878 0.05593484)
(2.806901e-05 0.00596741 0.1674276)
(8.028159e-06 -0.001078013 0.05581037)
(3.124773e-05 -0.003212099 0.1670909)
(3.170612e-06 -0.002053508 0.06184438)
(1.060462e-05 -0.006076644 0.1851988)
(2.347839e-06 -0.0006443422 0.04222172)
(-8.77162e-06 -0.002015119 0.1262142)
(1.39875e-06 9.397837e-05 0.04160797)
(-1.859124e-05 2.084155e-05 0.124267)
(3.939486e-06 0.002697836 0.06185866)
(4.854495e-06 0.008019101 0.1852441)
(6.776851e-06 0.002036452 0.05627255)
(2.869946e-05 0.006070593 0.1682858)
(6.733381e-06 -0.002031383 0.05624647)
(2.857779e-05 -0.006062059 0.1682097)
(4.062845e-06 -0.00270188 0.06183673)
(5.359942e-06 -0.008035663 0.1851822)
(1.495725e-06 -6.729774e-05 0.04163203)
(-1.846672e-05 4.647581e-05 0.1243378)
(2.315559e-06 0.00067268 0.04219955)
(-8.814528e-06 0.002091397 0.1261468)
(3.230634e-06 0.002065736 0.06182329)
(1.087944e-05 0.006105609 0.1851373)
(8.044975e-06 0.001075594 0.05577463)
(3.121912e-05 0.003207214 0.1669906)
(6.842754e-06 -0.001942774 0.05591307)
(2.828292e-05 -0.005861379 0.1673629)
(3.446938e-06 -0.002804075 0.06160876)
(4.64419e-06 -0.008355177 0.1845749)
(4.140599e-07 0.0001821007 0.0416213)
(-2.403808e-05 0.000744757 0.1244194)
(2.275988e-06 0.001106572 0.04063584)
(-8.210767e-06 0.003404925 0.121436)
(4.445024e-06 0.002099271 0.06022145)
(1.456021e-05 0.006276933 0.1804199)
(7.653413e-06 0.001127227 0.05451409)
(3.046955e-05 0.003504911 0.163339)
(6.521296e-06 -0.001584445 0.05672721)
(2.416051e-05 -0.004716752 0.1699138)
(4.212861e-06 -0.001499657 0.062592)
(8.422891e-06 -0.004226652 0.1875493)
(3.246823e-06 0.0009367279 0.04383596)
(-1.378367e-05 0.002862123 0.1312185)
(1.628429e-06 7.846385e-05 0.0346009)
(-2.760825e-06 5.989984e-05 0.1032168)
(4.21678e-06 0.00126005 0.05553571)
(5.518854e-06 0.003837055 0.166261)
(7.809698e-06 -0.001221564 0.04959721)
(4.153241e-05 -0.003489886 0.1483557)
(6.57983e-06 -0.006591433 0.0593245)
(2.351274e-05 -0.01954142 0.1776942)
(1.926362e-06 -0.004926966 0.06806036)
(7.143268e-06 -0.01426838 0.204061)
(8.241668e-07 -0.002911351 0.05383253)
(-4.198844e-05 -0.008167462 0.1613932)
(-1.107968e-06 -0.001396882 0.03055915)
(-4.55521e-05 -0.004150758 0.09132541)
(7.580863e-07 0.0001756911 0.03469927)
(-2.36481e-05 0.0006217718 0.1035124)
(1.903343e-06 0.003594922 0.05622259)
(-2.478619e-05 0.01037036 0.1683976)
(3.415377e-06 0.005142527 0.06532426)
(1.393349e-05 0.01503096 0.1958791)
(6.990169e-06 0.005776378 0.05823374)
(2.318654e-05 0.01718231 0.1745577)
(8.096042e-06 0.002187412 0.0487819)
(3.762977e-05 0.006379003 0.1459066)
(5.649546e-06 -0.0003377871 0.05366088)
(1.605549e-05 -0.001146103 0.1606323)
(3.009702e-06 -0.0005134761 0.03429482)
(1.456167e-06 -0.0015373 0.1022771)
(3.242194e-06 0.0002820289 0.04327799)
(-1.749234e-05 0.0007170226 0.1294675)
(3.77521e-06 0.003213083 0.05968055)
(1.198256e-05 0.009437001 0.1787566)
(6.99414e-06 0.001626982 0.05460538)
(2.441149e-05 0.004803024 0.1635535)
(6.996331e-06 0.0002755404 0.05198601)
(2.629402e-05 0.0007032406 0.1557395)
(6.084539e-06 -0.001472709 0.05705828)
(2.054919e-05 -0.004390367 0.1709074)
(4.21982e-06 -0.0004650314 0.03919084)
(1.750166e-06 -0.001537944 0.1171284)
(3.070109e-06 0.0005446664 0.0399488)
(-7.64241e-06 0.001443531 0.1193524)
(3.922151e-06 0.002390789 0.0581889)
(8.675455e-06 0.007177825 0.174257)
(6.700569e-06 0.001172129 0.05401709)
(2.515534e-05 0.003622633 0.1616635)
(7.071616e-06 -0.000728333 0.0535824)
(2.486569e-05 -0.002118606 0.1604606)
(6.247487e-06 -0.001862653 0.05859622)
(1.859318e-05 -0.005468418 0.175612)
(5.171527e-06 8.069977e-05 0.04031379)
(1.863606e-06 5.025253e-05 0.1205923)
(3.971942e-06 0.001220473 0.04032221)
(-2.262249e-06 0.003377204 0.1203828)
(2.561531e-06 0.002222487 0.0584496)
(4.426142e-06 0.006681727 0.1750022)
(7.253097e-06 0.001318884 0.05472602)
(2.769069e-05 0.004081161 0.1637943)
(7.282045e-06 -0.00127737 0.05469121)
(2.787747e-05 -0.003968204 0.1636848)
(2.641423e-06 -0.002228149 0.05844069)
(4.747621e-06 -0.006709706 0.1749666)
(3.798238e-06 -0.001214678 0.04034596)
(-2.837508e-06 -0.003367324 0.1204535)
(5.256597e-06 -9.175924e-05 0.04026729)
(2.188808e-06 -8.456274e-05 0.1204562)
(6.232979e-06 0.001871145 0.0585722)
(1.856451e-05 0.005486963 0.1755412)
(7.054961e-06 0.0007100912 0.0535218)
(2.48016e-05 0.002060908 0.1602809)
(6.690861e-06 -0.00116677 0.05399375)
(2.504461e-05 -0.003599045 0.1615943)
(4.139375e-06 -0.002408707 0.05819258)
(9.601026e-06 -0.007235 0.1742702)
(2.982561e-06 -0.0005526408 0.03998952)
(-8.122581e-06 -0.001486738 0.1194814)
(4.06569e-06 0.000489956 0.03914569)
(1.259994e-06 0.001597581 0.1169876)
(6.005145e-06 0.00147111 0.0570471)
(2.009471e-05 0.004387058 0.170874)
(6.993833e-06 -0.0002380259 0.05199934)
(2.632307e-05 -0.0005887834 0.155778)
(6.969135e-06 -0.001623793 0.05464573)
(2.441306e-05 -0.004797523 0.1636631)
(3.766467e-06 -0.003231885 0.05974217)
(1.189073e-05 -0.009500107 0.1789344)
(3.210134e-06 -0.000270799 0.0433472)
(-1.780182e-05 -0.0006891552 0.129669)
(2.997147e-06 0.0005298783 0.0342941)
(1.296825e-06 0.001592806 0.1022782)
(5.722884e-06 0.0003801518 0.05367132)
(1.643838e-05 0.001273087 0.1606618)
(8.084393e-06 -0.002180133 0.04877193)
(3.762699e-05 -0.006364528 0.1458751)
(6.972337e-06 -0.00576647 0.0582269)
(2.315397e-05 -0.01715277 0.1745368)
(3.381904e-06 -0.005133923 0.06531573)
(1.386326e-05 -0.01500592 0.195851)
(1.900228e-06 -0.003599695 0.05623225)
(-2.479491e-05 -0.01038407 0.1684249)
(7.509554e-07 -0.0001704222 0.03470831)
(-2.367359e-05 -0.0006066466 0.1035386)
(2.06324e-06 -0.000967768 0.03566056)
(-1.276855e-05 -0.002767389 0.1062597)
(3.18942e-06 0.003981825 0.05536287)
(-1.918768e-05 0.01164519 0.1658035)
(3.760929e-06 0.005757179 0.06193755)
(1.498666e-05 0.01688033 0.1856888)
(7.01709e-06 0.005119804 0.05588722)
(2.249451e-05 0.01529441 0.1675303)
(5.79103e-06 0.002693845 0.04857005)
(2.342358e-05 0.008037864 0.1452681)
(7.327698e-06 0.001312211 0.0523965)
(1.818938e-05 0.003833595 0.156853)
(3.837289e-06 0.0004998446 0.03564366)
(1.093292e-05 0.001406748 0.1062476)
(3.146399e-06 0.0004380583 0.0431925)
(-1.386664e-05 0.00124503 0.1291273)
(3.120615e-06 0.003088377 0.05766754)
(9.660326e-06 0.009224355 0.1728076)
(6.700386e-06 0.001663867 0.05289262)
(2.053977e-05 0.004985259 0.1585462)
(5.859438e-06 0.001007417 0.05055021)
(1.893221e-05 0.003031706 0.1513617)
(6.417052e-06 -0.0004457884 0.05532829)
(1.611071e-05 -0.001345891 0.1656911)
(4.563176e-06 0.0008497105 0.03860079)
(6.959446e-06 0.002385595 0.1153257)
(3.642475e-06 0.0005119842 0.03966176)
(2.917945e-07 0.001428469 0.1183142)
(3.793749e-06 0.00137622 0.05625497)
(8.369293e-06 0.004192406 0.1684277)
(6.090841e-06 0.0005333566 0.05275707)
(1.911715e-05 0.001681275 0.1579313)
(6.270468e-06 -0.0005942424 0.05194225)
(1.871431e-05 -0.001726005 0.1555574)
(5.166377e-06 -0.001347537 0.05619101)
(9.649062e-06 -0.003989981 0.1684667)
(4.321315e-06 0.001393419 0.03926667)
(-5.533558e-07 0.004030193 0.1173624)
(1.919312e-06 0.001433599 0.03999915)
(-7.667359e-07 0.004286272 0.1193474)
(4.329423e-06 0.001060511 0.05648672)
(1.46482e-05 0.003333954 0.169134)
(6.583839e-06 0.000299636 0.05316512)
(2.037139e-05 0.001010873 0.1593405)
(6.581259e-06 -0.0002605057 0.0531854)
(2.046814e-05 -0.0008934977 0.159392)
(4.338615e-06 -0.001052603 0.05652592)
(1.472117e-05 -0.003319393 0.1692441)
(1.925579e-06 -0.001435349 0.04003285)
(-6.537671e-07 -0.004299801 0.1194437)
(4.329701e-06 -0.001428953 0.03921395)
(-4.080592e-07 -0.00414681 0.1172016)
(5.151973e-06 0.001347219 0.05617108)
(9.303167e-06 0.003979944 0.1684057)
(6.245162e-06 0.000598323 0.05188514)
(1.863519e-05 0.001727085 0.1553801)
(6.100823e-06 -0.0005536711 0.0527438)
(1.90568e-05 -0.001738066 0.1578882)
(3.848541e-06 -0.001373278 0.0562738)
(8.455228e-06 -0.004186855 0.1684848)
(3.727333e-06 -0.0004807028 0.03967674)
(5.298977e-07 -0.001343895 0.1183633)
(4.652322e-06 -0.0008165839 0.03855742)
(7.453959e-06 -0.002293915 0.1151906)
(6.270034e-06 0.0004405145 0.05529793)
(1.576509e-05 0.001321519 0.1656011)
(5.878607e-06 -0.001016315 0.05054302)
(1.892268e-05 -0.00305338 0.1513471)
(6.699073e-06 -0.001645018 0.05295563)
(2.058051e-05 -0.004931881 0.1587397)
(3.147013e-06 -0.003047878 0.05772705)
(9.729766e-06 -0.009118033 0.1729858)
(3.02012e-06 -0.0004305121 0.04325326)
(-1.399154e-05 -0.001225072 0.1293072)
(3.873806e-06 -0.0005247847 0.03559533)
(1.092623e-05 -0.001473662 0.106105)
(7.438265e-06 -0.001290829 0.05239942)
(1.848169e-05 -0.003768198 0.1568606)
(5.80675e-06 -0.002673103 0.04855694)
(2.348862e-05 -0.007981559 0.1452245)
(7.030403e-06 -0.005121448 0.05588174)
(2.252783e-05 -0.01529983 0.1675091)
(3.759147e-06 -0.005753145 0.06194936)
(1.496418e-05 -0.01686709 0.1857221)
(3.196476e-06 -0.003978145 0.05537521)
(-1.917265e-05 -0.01163481 0.1658381)
(2.070378e-06 0.0009729283 0.03566844)
(-1.273584e-05 0.002782276 0.1062808)
(2.45873e-06 -0.001588331 0.03631332)
(-5.451138e-06 -0.004676988 0.1081641)
(3.240785e-06 0.003376418 0.05306631)
(-1.394932e-05 0.009987341 0.1589486)
(3.79413e-06 0.005256755 0.05925975)
(1.326747e-05 0.01554323 0.1776501)
(6.669558e-06 0.004247609 0.0538911)
(2.072288e-05 0.01271862 0.1614797)
(5.151821e-06 0.002200613 0.04819816)
(1.727028e-05 0.00657553 0.1441861)
(6.02173e-06 0.002006017 0.05118282)
(9.756685e-06 0.00593214 0.1531705)
(4.100597e-06 0.0007625814 0.03614242)
(1.385095e-05 0.002364987 0.1076508)
(4.189932e-06 0.000159273 0.04251402)
(-4.251397e-06 0.0005837059 0.1270639)
(4.137068e-06 0.002623253 0.05497327)
(1.385658e-05 0.007807494 0.1647982)
(6.782573e-06 0.001096072 0.0504718)
(1.887517e-05 0.003280718 0.1512554)
(4.880311e-06 0.0005902306 0.0496109)
(1.304243e-05 0.001866962 0.1485098)
(5.371916e-06 0.0001861293 0.05401871)
(7.385586e-06 0.0005066895 0.1617823)
(4.083184e-06 0.001427871 0.03795594)
(7.285611e-06 0.004227428 0.1132483)
(3.281045e-06 0.000439969 0.03954282)
(1.892438e-06 0.001289509 0.1178295)
(4.074855e-06 0.0007986424 0.05431204)
(1.056068e-05 0.002402771 0.1626022)
(6.384188e-06 0.0001768476 0.05125826)
(1.693822e-05 0.0005557862 0.1535034)
(4.977121e-06 -0.0005425049 0.05051716)
(1.248712e-05 -0.001601741 0.1512462)
(4.993403e-06 -0.0006898365 0.05411604)
(4.203253e-06 -0.002087645 0.162149)
(3.591438e-06 0.001582061 0.03828782)
(5.71695e-07 0.00480652 0.1142151)
(3.499646e-06 0.0004099487 0.03958423)
(6.917301e-06 0.001461186 0.1180655)
(6.249339e-06 0.0003013514 0.05454164)
(1.929945e-05 0.0009883773 0.1633685)
(5.755853e-06 -9.642908e-05 0.05102988)
(1.37935e-05 -0.0003016579 0.152988)
(5.796213e-06 8.441453e-05 0.05107609)
(1.385885e-05 0.0002715485 0.1531269)
(6.374219e-06 -0.0003076864 0.05461331)
(1.98856e-05 -0.001016569 0.1635799)
(3.565776e-06 -0.0004151864 0.03964767)
(7.129664e-06 -0.001496423 0.1182551)
(3.582791e-06 -0.001589864 0.03824127)
(4.511633e-07 -0.004848573 0.1140716)
(4.944371e-06 0.000689303 0.05411117)
(3.697877e-06 0.002078961 0.1621338)
(4.970811e-06 0.0005864489 0.05050088)
(1.247112e-05 0.001725003 0.1511875)
(6.247239e-06 -0.000212095 0.05125708)
(1.656614e-05 -0.0006643068 0.1534882)
(4.093625e-06 -0.0007966556 0.05433016)
(1.04226e-05 -0.002398292 0.1626565)