/*--------------------------------*- C++ -*----------------------------------*\
| =========                 |                                                 |
| \\      /  F ield         | OpenFOAM: The Open Source CFD Toolbox           |
|  \\    /   O peration     | Version:  4.0                                   |
|   \\  /    A nd           | Web:      www.OpenFOAM.org                      |
|    \\/     M anipulation  |                                                 |
\*---------------------------------------------------------------------------*/
FoamFile
{
    version     2.0;
    format      ascii;
    class       volScalarField;
    location    "60/fuel";
    object      XCH3OHfuel;
}
// * * * * * * * * * * * * * * * * * * * * * * * * * * * * * * * * * * * * * //

dimensions      [0 0 0 0 0 0 0];

internalField   nonuniform List<scalar> 
39776
(
0.8332962
0.8333162
0.833951
0.8339714
0.834365
0.8343857
0.8343949
0.8344157
0.8343836
0.8344044
0.8343558
0.8343765
0.8339382
0.8339585
0.8339695
0.8339898
0.8343593
0.83438
0.8343838
0.8344045
0.8343841
0.8344048
0.8343587
0.8343794
0.8339567
0.833977
0.8339658
0.8339861
0.83436
0.8343807
0.8343849
0.8344056
0.8343844
0.8344051
0.8343597
0.8343804
0.8339616
0.8339818
0.8339646
0.8339848
0.8343602
0.8343808
0.8343843
0.834405
0.8343843
0.834405
0.8343602
0.8343808
0.8339645
0.8339847
0.8339609
0.8339811
0.8343592
0.8343799
0.8343839
0.8344046
0.8343844
0.8344051
0.83436
0.8343806
0.8339641
0.8339844
0.8339547
0.833975
0.8343574
0.8343781
0.8343829
0.8344036
0.8343842
0.8344049
0.8343599
0.8343806
0.8339705
0.8339907
0.8339392
0.8339594
0.8343564
0.8343771
0.8343853
0.834406
0.8343981
0.8344188
0.8343684
0.834389
0.8339568
0.833977
0.8333058
0.8333256
0.8332711
0.8332909
0.833826
0.8338461
0.8342367
0.8342571
0.8342796
0.8343001
0.8342666
0.8342871
0.8342128
0.8342332
0.8337802
0.8338003
0.8338218
0.8338419
0.8342221
0.8342425
0.8342675
0.834288
0.8342658
0.8342863
0.8342162
0.8342366
0.8337971
0.8338172
0.8338132
0.8338333
0.8342198
0.8342403
0.8342665
0.834287
0.8342646
0.8342852
0.8342166
0.8342371
0.8338025
0.8338227
0.8338067
0.8338269
0.8342174
0.834238
0.8342647
0.8342852
0.8342647
0.8342852
0.8342175
0.834238
0.8338066
0.8338268
0.8338025
0.8338226
0.8342176
0.8342381
0.8342656
0.8342861
0.8342664
0.834287
0.8342197
0.8342402
0.8338127
0.8338328
0.833797
0.8338171
0.8342162
0.8342366
0.8342655
0.834286
0.8342676
0.8342881
0.8342223
0.8342427
0.8338222
0.8338423
0.8337807
0.8338008
0.8342131
0.8342335
0.8342672
0.8342877
0.8342806
0.8343011
0.8342375
0.834258
0.8338278
0.8338479
0.8332749
0.8332948
0.8330723
0.833092
0.8336172
0.8336373
0.8340982
0.8341186
0.834167
0.8341874
0.8341519
0.8341724
0.8340688
0.8340892
0.8336006
0.8336207
0.8336496
0.8336697
0.8340845
0.8341049
0.8341552
0.8341756
0.8341521
0.8341725
0.8340748
0.8340952
0.8336199
0.8336399
0.833641
0.833661
0.8340822
0.8341026
0.8341551
0.8341755
0.8341536
0.834174
0.8340787
0.8340991
0.833629
0.833649
0.8336343
0.8336543
0.8340803
0.8341006
0.8341545
0.8341749
0.8341545
0.8341749
0.8340803
0.8341006
0.8336342
0.8336542
0.833629
0.833649
0.8340789
0.8340992
0.8341539
0.8341743
0.8341551
0.8341755
0.8340822
0.8341025
0.8336406
0.8336606
0.8336196
0.8336396
0.8340746
0.834095
0.8341519
0.8341723
0.8341553
0.8341757
0.8340847
0.8341051
0.83365
0.8336701
0.833601
0.833621
0.8340689
0.8340893
0.8341523
0.8341727
0.8341677
0.8341881
0.8340992
0.8341196
0.8336192
0.8336392
0.8330754
0.8330952
0.8328111
0.8328307
0.8333389
0.8333587
0.833941
0.8339612
0.8340565
0.8340768
0.8340425
0.8340627
0.8339151
0.8339353
0.8334157
0.8334356
0.8334527
0.8334726
0.8339431
0.8339634
0.8340484
0.8340687
0.8340433
0.8340636
0.8339243
0.8339445
0.8334308
0.8334507
0.8334461
0.8334661
0.8339368
0.833957
0.8340466
0.8340669
0.8340444
0.8340647
0.8339289
0.8339491
0.8334359
0.8334558
0.8334398
0.8334598
0.8339315
0.8339518
0.8340443
0.8340646
0.8340443
0.8340647
0.8339315
0.8339518
0.8334398
0.8334597
0.8334358
0.8334557
0.8339277
0.833948
0.8340433
0.8340636
0.8340465
0.8340668
0.8339368
0.833957
0.8334458
0.8334657
0.8334299
0.8334498
0.8339236
0.8339439
0.8340432
0.8340634
0.8340485
0.8340687
0.8339433
0.8339635
0.833453
0.8334729
0.833416
0.8334358
0.8339152
0.8339354
0.8340427
0.834063
0.8340571
0.8340774
0.8339424
0.8339626
0.8333414
0.8333612
0.832814
0.8328336
0.8325473
0.8325669
0.8330677
0.8330874
0.8337916
0.8338117
0.8339556
0.8339758
0.8339423
0.8339626
0.8337792
0.8337994
0.8332291
0.833249
0.8332576
0.8332775
0.833817
0.8338372
0.833952
0.8339722
0.8339446
0.8339648
0.8337904
0.8338106
0.8332412
0.8332611
0.8332538
0.8332737
0.8338115
0.8338316
0.8339516
0.8339718
0.8339487
0.833969
0.8338017
0.8338218
0.8332485
0.8332683
0.8332516
0.8332714
0.8338029
0.833823
0.8339489
0.8339691
0.8339489
0.8339691
0.8338029
0.833823
0.8332516
0.8332714
0.8332489
0.8332687
0.8338019
0.833822
0.8339489
0.8339691
0.833952
0.8339722
0.8338114
0.8338315
0.8332549
0.8332747
0.8332421
0.8332619
0.8337913
0.8338115
0.8339455
0.8339657
0.8339516
0.8339719
0.8338167
0.8338369
0.8332574
0.8332773
0.8332287
0.8332486
0.8337787
0.8337989
0.833941
0.8339613
0.8339534
0.8339737
0.8337898
0.83381
0.8330664
0.8330863
0.8325463
0.8325659
0.8322764
0.832296
0.8328024
0.8328221
0.8336402
0.8336604
0.833859
0.8338793
0.833851
0.8338713
0.8336554
0.8336755
0.8330502
0.83307
0.8330752
0.833095
0.8337105
0.8337306
0.8338695
0.8338898
0.8338611
0.8338813
0.8336776
0.8336977
0.833063
0.8330827
0.8330734
0.8330932
0.8336987
0.8337188
0.8338684
0.8338886
0.8338656
0.8338858
0.83369
0.8337101
0.8330699
0.8330896
0.8330712
0.8330909
0.833688
0.833708
0.8338642
0.8338843
0.8338642
0.8338844
0.833688
0.833708
0.8330712
0.833091
0.8330695
0.8330893
0.8336896
0.8337097
0.8338652
0.8338854
0.8338681
0.8338883
0.8336987
0.8337187
0.8330726
0.8330924
0.833062
0.8330818
0.8336769
0.833697
0.8338605
0.8338807
0.83387
0.8338902
0.8337111
0.8337312
0.8330759
0.8330957
0.8330507
0.8330705
0.8336558
0.8336759
0.8338523
0.8338725
0.8338613
0.8338815
0.8336431
0.8336632
0.8328064
0.832826
0.8322808
0.8323003
0.8320091
0.8320285
0.8325614
0.8325809
0.8335182
0.8335382
0.8337809
0.833801
0.8337768
0.8337969
0.8335539
0.8335739
0.8328866
0.8329062
0.8329173
0.832937
0.8336201
0.8336401
0.833802
0.8338221
0.8337914
0.8338115
0.8335847
0.8336047
0.8328974
0.8329171
0.8329057
0.8329254
0.8336014
0.8336214
0.8337965
0.8338166
0.833793
0.8338132
0.8335929
0.833613
0.8329018
0.8329215
0.8329023
0.8329221
0.8335919
0.8336119
0.8337915
0.8338117
0.8337915
0.8338117
0.8335919
0.8336119
0.8329024
0.8329221
0.8329017
0.8329214
0.8335938
0.8336138
0.8337939
0.833814
0.8337964
0.8338166
0.8336012
0.8336213
0.8329055
0.8329252
0.8328975
0.8329172
0.8335849
0.833605
0.8337913
0.8338114
0.8338022
0.8338223
0.8336205
0.8336405
0.8329178
0.8329375
0.8328868
0.8329065
0.833554
0.833574
0.8337773
0.8337974
0.8337818
0.8338019
0.8335194
0.8335394
0.8325635
0.8325831
0.8320119
0.8320313
0.8317448
0.8317642
0.8323373
0.8323568
0.8334112
0.8334311
0.8337113
0.8337314
0.8337124
0.8337325
0.8334717
0.8334917
0.8327336
0.8327533
0.8327604
0.8327801
0.8335322
0.8335522
0.8337383
0.8337584
0.8337281
0.8337482
0.8334996
0.8335196
0.8327461
0.8327657
0.832753
0.8327726
0.8335169
0.8335369
0.8337342
0.8337543
0.8337318
0.8337519
0.8335094
0.8335293
0.8327511
0.8327707
0.8327516
0.8327713
0.8335112
0.8335311
0.8337314
0.8337515
0.8337314
0.8337515
0.8335112
0.8335311
0.8327517
0.8327713
0.832751
0.8327706
0.8335096
0.8335296
0.833732
0.8337521
0.8337341
0.8337542
0.8335167
0.8335366
0.8327528
0.8327725
0.8327459
0.8327656
0.8334998
0.8335198
0.8337281
0.8337482
0.8337384
0.8337586
0.8335326
0.8335526
0.8327608
0.8327805
0.8327338
0.8327534
0.8334716
0.8334916
0.8337127
0.8337328
0.833712
0.8337321
0.8334125
0.8334325
0.8323397
0.8323592
0.8317476
0.8317669
0.83149
0.8315093
0.8321315
0.8321509
0.8333187
0.8333385
0.8336519
0.833672
0.8336583
0.8336783
0.8334026
0.8334225
0.8325979
0.8326175
0.8326205
0.8326401
0.8334535
0.8334735
0.8336825
0.8337026
0.8336744
0.8336944
0.8334301
0.83345
0.8326108
0.8326303
0.8326144
0.832634
0.8334368
0.8334568
0.8336772
0.8336973
0.8336755
0.8336955
0.8334293
0.8334492
0.8326125
0.8326322
0.8326175
0.8326371
0.8334391
0.8334591
0.8336766
0.8336967
0.8336766
0.8336967
0.8334391
0.833459
0.8326174
0.832637
0.8326124
0.832632
0.8334285
0.8334485
0.8336746
0.8336946
0.8336771
0.8336972
0.8334365
0.8334564
0.8326142
0.8326338
0.8326102
0.8326298
0.83343
0.8334499
0.8336745
0.8336945
0.8336829
0.8337029
0.8334543
0.8334743
0.832621
0.8326406
0.8325979
0.8326175
0.8334021
0.833422
0.8336585
0.8336785
0.8336524
0.8336724
0.8333203
0.8333402
0.8321343
0.8321537
0.8314926
0.8315119
0.8312473
0.8312666
0.8319408
0.8319602
0.8332333
0.8332532
0.8335969
0.8336169
0.8336074
0.8336274
0.8333392
0.8333591
0.8324734
0.832493
0.8324918
0.8325114
0.8333793
0.8333993
0.8336296
0.8336497
0.8336245
0.8336446
0.8333673
0.8333872
0.8325007
0.8325203
0.8324891
0.8325087
0.8333549
0.8333748
0.8336224
0.8336424
0.8336228
0.8336428
0.833356
0.8333759
0.83249
0.8325095
0.8324996
0.8325191
0.8333732
0.8333931
0.8336279
0.8336479
0.8336279
0.833648
0.8333733
0.8333931
0.8324994
0.832519
0.8324902
0.8325098
0.8333562
0.8333761
0.8336229
0.8336429
0.8336226
0.8336426
0.8333545
0.8333744
0.8324901
0.8325096
0.8325019
0.8325215
0.8333684
0.8333883
0.8336255
0.8336455
0.8336296
0.8336497
0.8333796
0.8333996
0.8324917
0.8325113
0.8324728
0.8324924
0.8333382
0.8333582
0.8336061
0.8336262
0.8335949
0.833615
0.833232
0.8332519
0.83194
0.8319595
0.8312465
0.8312658
0.8310138
0.8310331
0.8317589
0.8317784
0.8331486
0.8331685
0.8335424
0.8335625
0.8335591
0.8335792
0.8332801
0.8333001
0.832362
0.8323816
0.8323753
0.8323949
0.8333086
0.8333285
0.8335809
0.833601
0.8335803
0.8336003
0.8333114
0.8333313
0.8324089
0.8324284
0.8323787
0.8323983
0.8332756
0.8332955
0.8335698
0.8335898
0.8335741
0.8335941
0.8332934
0.8333133
0.8323784
0.8323979
0.8323848
0.8324044
0.8333028
0.8333227
0.8335781
0.8335981
0.8335781
0.8335981
0.8333029
0.8333227
0.8323848
0.8324043
0.8323779
0.8323975
0.8332931
0.833313
0.8335738
0.8335938
0.8335695
0.8335895
0.8332755
0.8332953
0.8323782
0.8323978
0.8324085
0.8324281
0.833311
0.833331
0.8335799
0.8336
0.8335816
0.8336016
0.8333094
0.8333294
0.8323765
0.832396
0.832363
0.8323826
0.8332806
0.8333005
0.8335604
0.8335804
0.8335447
0.8335647
0.8331515
0.8331714
0.8317632
0.8317826
0.8310182
0.8310374
0.8307988
0.8308179
0.8315927
0.8316121
0.8330704
0.8330901
0.8334951
0.833515
0.8335178
0.8335378
0.8332264
0.8332462
0.8322649
0.8322843
0.8322738
0.8322933
0.8332459
0.8332657
0.8335385
0.8335585
0.8335402
0.8335602
0.8332609
0.8332808
0.8323314
0.8323509
0.8322814
0.832301
0.8332039
0.8332238
0.8335205
0.8335405
0.8335293
0.8335494
0.8332384
0.8332583
0.8322832
0.8323027
0.8322792
0.8322987
0.8332301
0.83325
0.8335282
0.8335483
0.8335283
0.8335483
0.8332302
0.8332501
0.8322792
0.8322987
0.8322831
0.8323026
0.8332392
0.8332591
0.8335301
0.8335501
0.8335204
0.8335404
0.8332037
0.8332235
0.8322816
0.8323011
0.8323321
0.8323516
0.8332614
0.8332812
0.8335402
0.8335602
0.8335387
0.8335587
0.8332465
0.8332663
0.8322745
0.832294
0.8322654
0.8322848
0.8332264
0.8332463
0.8335182
0.8335382
0.8334961
0.833516
0.8330717
0.8330915
0.8315951
0.8316145
0.8308017
0.8308209
0.8305946
0.8306137
0.8314349
0.8314542
0.8329943
0.8330141
0.8334482
0.8334682
0.8334767
0.8334967
0.8331763
0.8331962
0.8321854
0.8322049
0.8321807
0.8322002
0.8331806
0.8332005
0.8334946
0.8335146
0.8335004
0.8335204
0.8332117
0.8332315
0.8322567
0.8322762
0.8321945
0.832214
0.8331428
0.8331626
0.8334761
0.8334961
0.83349
0.83351
0.8331907
0.8332105
0.8322072
0.8322266
0.8321875
0.8322069
0.8331662
0.833186
0.8334842
0.8335042
0.8334842
0.8335042
0.8331663
0.8331861
0.8321875
0.832207
0.8322072
0.8322266
0.8331908
0.8332106
0.8334902
0.8335101
0.833476
0.833496
0.8331426
0.8331624
0.8321947
0.8322142
0.8322572
0.8322767
0.8332118
0.8332317
0.8335004
0.8335205
0.8334948
0.8335148
0.8331812
0.833201
0.8321814
0.8322009
0.8321858
0.8322053
0.8331763
0.8331962
0.833477
0.833497
0.8334492
0.8334691
0.8329959
0.8330157
0.8314375
0.8314568
0.8305974
0.8306166
0.8304019
0.830421
0.831285
0.8313043
0.8329212
0.8329409
0.8334045
0.8334244
0.8334401
0.83346
0.8331338
0.8331536
0.8321251
0.8321445
0.8321004
0.8321198
0.8331142
0.833134
0.833452
0.8334719
0.8334631
0.8334831
0.8331643
0.8331841
0.8321783
0.8321978
0.8321143
0.8321338
0.8330887
0.8331085
0.8334352
0.8334552
0.8334523
0.8334723
0.8331442
0.8331641
0.8321366
0.8321561
0.8321034
0.8321229
0.8331045
0.8331243
0.8334404
0.8334604
0.8334405
0.8334605
0.8331046
0.8331244
0.8321035
0.832123
0.8321365
0.832156
0.8331433
0.8331632
0.8334515
0.8334715
0.8334351
0.833455
0.8330885
0.8331083
0.8321146
0.832134
0.8321784
0.8321978
0.8331641
0.8331839
0.8334632
0.8334831
0.8334523
0.8334722
0.833115
0.8331348
0.8321008
0.8321203
0.8321246
0.8321441
0.8331335
0.8331533
0.8334402
0.8334602
0.8334053
0.8334252
0.8329229
0.8329427
0.831288
0.8313072
0.8304047
0.8304238
0.8302204
0.8302395
0.8311467
0.8311659
0.8328575
0.8328772
0.833363
0.8333829
0.8334045
0.8334245
0.8330952
0.833115
0.8320791
0.8320986
0.8320283
0.8320478
0.83305
0.8330698
0.8334072
0.8334272
0.8334243
0.8334442
0.8331162
0.8331361
0.8320987
0.8321182
0.8320388
0.8320583
0.8330427
0.8330625
0.833398
0.8334179
0.8334165
0.8334365
0.8331011
0.8331209
0.8320753
0.8320947
0.8320306
0.83205
0.8330502
0.83307
0.8334002
0.8334201
0.8334003
0.8334202
0.8330504
0.8330701
0.8320307
0.8320501
0.8320755
0.8320949
0.8331011
0.8331209
0.8334166
0.8334365
0.8333981
0.833418
0.8330424
0.8330622
0.83204
0.8320594
0.8321
0.8321194
0.833117
0.8331368
0.833425
0.833445
0.833407
0.833427
0.8330502
0.83307
0.8320278
0.8320473
0.8320775
0.8320971
0.8330941
0.833114
0.8334031
0.8334231
0.8333613
0.8333813
0.8328564
0.8328762
0.8311462
0.8311656
0.8302198
0.830239
0.8300453
0.8300644
0.8310087
0.831028
0.8327839
0.8328037
0.8333181
0.8333381
0.833368
0.833388
0.8330589
0.8330787
0.8320401
0.8320596
0.831964
0.8319835
0.8329834
0.8330032
0.8333612
0.8333812
0.8333859
0.8334058
0.8330695
0.8330893
0.832021
0.8320405
0.8319683
0.8319878
0.8329948
0.8330146
0.8333599
0.8333798
0.8333799
0.8333998
0.8330571
0.8330769
0.83201
0.8320295
0.8319611
0.8319805
0.8329943
0.833014
0.8333578
0.8333777
0.8333578
0.8333777
0.8329944
0.8330141
0.8319613
0.8319807
0.8320098
0.8320292
0.8330567
0.8330765
0.8333795
0.8333994
0.8333596
0.8333796
0.8329949
0.8330147
0.8319682
0.8319876
0.8320209
0.8320404
0.8330691
0.8330889
0.8333856
0.8334055
0.8333622
0.8333822
0.8329847
0.8330045
0.831965
0.8319845
0.8320404
0.8320599
0.8330593
0.8330791
0.8333694
0.8333893
0.8333207
0.8333406
0.8327874
0.8328071
0.8310134
0.8310326
0.83005
0.8300691
0.8298838
0.8299028
0.8308788
0.830898
0.8327112
0.8327309
0.8332774
0.8332972
0.833337
0.8333569
0.8330277
0.8330475
0.8320059
0.8320253
0.8319095
0.8319289
0.8329234
0.8329431
0.8333204
0.8333403
0.8333504
0.8333703
0.8330262
0.833046
0.831956
0.8319754
0.8319026
0.831922
0.8329452
0.832965
0.8333219
0.8333418
0.8333431
0.8333631
0.8330113
0.8330311
0.8319351
0.8319545
0.831893
0.8319124
0.8329476
0.8329674
0.8333188
0.8333387
0.8333188
0.8333388
0.8329476
0.8329674
0.8318932
0.8319126
0.8319352
0.8319547
0.8330119
0.8330317
0.8333438
0.8333637
0.8333219
0.8333418
0.8329454
0.8329651
0.8319029
0.8319223
0.8319565
0.8319759
0.8330265
0.8330462
0.8333504
0.8333703
0.8333209
0.8333407
0.8329241
0.8329439
0.83191
0.8319294
0.8320059
0.8320253
0.8330277
0.8330475
0.8333374
0.8333573
0.8332785
0.8332984
0.8327129
0.8327326
0.8308816
0.8309008
0.829887
0.829906
0.829724
0.8297431
0.8307381
0.8307573
0.8326112
0.8326309
0.8332256
0.8332455
0.8333004
0.8333204
0.8329905
0.8330103
0.8319614
0.8319808
0.8318534
0.8318728
0.8328549
0.8328747
0.8332741
0.8332941
0.8333121
0.833332
0.8329792
0.832999
0.8318871
0.8319065
0.8318374
0.8318568
0.8328881
0.8329078
0.8332814
0.8333013
0.8333051
0.833325
0.8329586
0.8329784
0.8318608
0.8318802
0.8318285
0.8318478
0.8329012
0.8329209
0.8332822
0.8333021
0.8332823
0.8333021
0.8329012
0.8329209
0.8318287
0.831848
0.8318609
0.8318803
0.8329588
0.8329786
0.8333052
0.8333251
0.8332815
0.8333014
0.8328883
0.8329081
0.8318377
0.8318571
0.8318871
0.8319065
0.8329791
0.8329989
0.8333122
0.8333321
0.8332745
0.8332944
0.8328555
0.8328753
0.8318539
0.8318733
0.8319615
0.831981
0.8329905
0.8330103
0.8333008
0.8333207
0.8332266
0.8332465
0.832613
0.8326326
0.830741
0.8307602
0.8297272
0.8297462
0.8295559
0.8295749
0.8305604
0.8305795
0.8324449
0.8324645
0.8331539
0.8331737
0.8332579
0.8332778
0.8329433
0.8329631
0.831881
0.8319004
0.8317886
0.831808
0.8327745
0.8327942
0.8332229
0.8332427
0.8332682
0.833288
0.8329115
0.8329312
0.8318099
0.8318293
0.8317676
0.8317869
0.8328148
0.8328345
0.8332347
0.8332546
0.8332595
0.8332793
0.8328838
0.8329035
0.8317842
0.8318036
0.8317586
0.8317781
0.8328315
0.8328512
0.8332366
0.8332565
0.8332366
0.8332565
0.8328315
0.8328513
0.8317589
0.8317783
0.8317842
0.8318036
0.832883
0.8329028
0.8332587
0.8332786
0.8332348
0.8332547
0.8328151
0.8328348
0.8317678
0.8317872
0.8318094
0.8318288
0.832911
0.8329308
0.8332681
0.833288
0.8332231
0.833243
0.8327749
0.8327946
0.8317891
0.8318085
0.8318813
0.8319007
0.8329433
0.832963
0.8332583
0.8332781
0.8331549
0.8331747
0.832447
0.8324666
0.8305637
0.8305828
0.8295589
0.8295779
0.8293664
0.8293853
0.8303621
0.8303813
0.8322731
0.8322927
0.8330757
0.8330955
0.8332089
0.8332288
0.8328864
0.8329062
0.8318042
0.8318236
0.8317126
0.831732
0.8326875
0.8327072
0.8331677
0.8331876
0.8332198
0.8332397
0.8328364
0.8328562
0.8317263
0.8317457
0.8316889
0.8317083
0.8327374
0.8327571
0.8331865
0.8332063
0.8332112
0.833231
0.8328036
0.8328233
0.8317042
0.8317235
0.8316841
0.8317035
0.8327599
0.8327796
0.833191
0.8332109
0.8331911
0.8332109
0.8327599
0.8327796
0.8316843
0.8317037
0.8317045
0.8317239
0.8328037
0.8328234
0.8332113
0.8332311
0.8331869
0.8332067
0.8327377
0.8327574
0.8316899
0.8317093
0.8317269
0.8317463
0.8328367
0.8328564
0.8332204
0.8332402
0.8331671
0.833187
0.832687
0.8327067
0.8317121
0.8317315
0.8318037
0.8318232
0.8328856
0.8329054
0.8332075
0.8332275
0.8330742
0.8330941
0.8322725
0.8322921
0.8303619
0.8303811
0.8293658
0.8293848
0.8290906
0.8291097
0.8299481
0.8299673
0.8316953
0.8317148
0.8328522
0.8328721
0.8330732
0.8330931
0.832641
0.8326608
0.8316599
0.8316793
0.8315777
0.8315971
0.83242
0.8324397
0.833042
0.8330618
0.8330982
0.8331181
0.8325691
0.8325887
0.8315919
0.8316113
0.8315579
0.8315773
0.8324773
0.8324969
0.8330666
0.8330864
0.8330894
0.8331092
0.8325338
0.8325534
0.8315705
0.8315899
0.8315548
0.8315742
0.8325011
0.8325207
0.8330718
0.8330916
0.8330719
0.8330917
0.8325012
0.8325208
0.8315551
0.8315744
0.8315703
0.8315896
0.8325335
0.8325531
0.8330891
0.8331089
0.8330666
0.8330864
0.832478
0.8324976
0.8315578
0.8315772
0.8315913
0.8316107
0.8325682
0.8325879
0.8330977
0.8331176
0.8330429
0.8330627
0.8324211
0.8324408
0.8315792
0.8315986
0.8316613
0.8316807
0.8326421
0.8326618
0.833075
0.8330949
0.8328555
0.8328752
0.8316999
0.8317193
0.8299537
0.8299728
0.8290962
0.8291152
0.8286253
0.8286442
0.8292389
0.8292579
0.8306485
0.8306677
0.8322099
0.8322294
0.8326775
0.8326972
0.8321166
0.8321361
0.8313654
0.8313847
0.8312942
0.8313134
0.8319295
0.8319489
0.8326711
0.8326908
0.8327327
0.8327523
0.8320492
0.8320686
0.831305
0.8313243
0.8312762
0.8312955
0.8319772
0.8319967
0.8327019
0.8327215
0.8327216
0.8327413
0.8320142
0.8320337
0.8312822
0.8313016
0.8312717
0.8312911
0.8319953
0.8320148
0.8327099
0.8327296
0.83271
0.8327297
0.8319955
0.832015
0.831272
0.8312913
0.8312823
0.8313016
0.832015
0.8320345
0.8327225
0.8327422
0.8327022
0.8327219
0.8319778
0.8319972
0.8312765
0.8312958
0.8313052
0.8313245
0.8320491
0.8320685
0.8327325
0.8327522
0.8326715
0.8326911
0.8319302
0.8319496
0.8312951
0.8313144
0.8313662
0.8313855
0.8321173
0.8321368
0.8326785
0.8326982
0.8322119
0.8322315
0.8306516
0.8306708
0.8292426
0.8292616
0.8286292
0.8286481
0.8333542
0.8334087
0.8334614
0.8335117
0.8335593
0.8336037
0.8336448
0.8336823
0.833716
0.8337459
0.833772
0.8337943
0.833813
0.8338283
0.8338404
0.8338497
0.8338564
0.8338609
0.8338636
0.8338648
0.8340101
0.8340668
0.8341221
0.8341753
0.8342257
0.8342726
0.8343157
0.8343545
0.8343889
0.8344186
0.8344437
0.8344642
0.8344806
0.834493
0.8345019
0.8345078
0.8345114
0.8345131
0.8345136
0.8345135
0.8344252
0.8344839
0.8345425
0.8346004
0.8346566
0.8347101
0.8347599
0.8348052
0.8348452
0.8348795
0.8349082
0.8349315
0.8349499
0.834964
0.8349746
0.8349825
0.8349882
0.8349924
0.8349956
0.834998
0.8344552
0.8345134
0.8345712
0.8346277
0.8346823
0.8347341
0.834782
0.8348253
0.8348634
0.8348959
0.8349229
0.8349446
0.8349615
0.8349742
0.8349834
0.8349899
0.8349943
0.8349973
0.8349991
0.8350003
0.8344439
0.8345021
0.8345597
0.8346163
0.834671
0.834723
0.8347714
0.8348154
0.8348545
0.8348881
0.8349163
0.8349392
0.8349572
0.8349709
0.834981
0.8349882
0.8349932
0.8349965
0.8349987
0.835
0.8344158
0.8344744
0.834533
0.8345909
0.8346473
0.8347012
0.8347515
0.8347975
0.8348383
0.8348736
0.8349032
0.8349274
0.8349466
0.8349615
0.8349727
0.8349811
0.8349873
0.8349918
0.8349952
0.8349977
0.833997
0.8340526
0.8341064
0.8341577
0.8342061
0.8342513
0.834293
0.8343308
0.8343647
0.8343946
0.8344204
0.8344424
0.8344605
0.8344751
0.8344865
0.834495
0.8345009
0.8345048
0.8345069
0.8345077
0.8340284
0.8340842
0.8341382
0.8341899
0.8342386
0.8342842
0.8343261
0.8343642
0.8343983
0.8344283
0.8344542
0.8344761
0.8344941
0.8345085
0.8345197
0.8345279
0.8345336
0.8345372
0.8345391
0.8345399
0.8344194
0.8344779
0.8345364
0.8345942
0.8346505
0.8347041
0.8347542
0.8347999
0.8348404
0.8348755
0.8349048
0.8349288
0.8349478
0.8349625
0.8349735
0.8349818
0.8349878
0.8349922
0.8349954
0.8349979
0.834444
0.834502
0.8345596
0.8346161
0.8346707
0.8347226
0.834771
0.834815
0.8348541
0.8348877
0.8349159
0.8349389
0.8349569
0.8349707
0.8349808
0.8349881
0.8349931
0.8349965
0.8349986
0.835
0.8344441
0.8345019
0.8345594
0.8346157
0.8346702
0.8347221
0.8347704
0.8348144
0.8348534
0.8348871
0.8349154
0.8349384
0.8349565
0.8349704
0.8349806
0.8349879
0.834993
0.8349964
0.8349986
0.835
0.8344186
0.834477
0.8345353
0.8345931
0.8346492
0.8347029
0.834753
0.8347987
0.8348393
0.8348744
0.8349039
0.834928
0.8349471
0.8349619
0.8349731
0.8349814
0.8349875
0.834992
0.8349953
0.8349978
0.8340154
0.834071
0.8341247
0.834176
0.8342244
0.8342697
0.8343113
0.8343492
0.8343831
0.834413
0.8344389
0.8344607
0.8344788
0.8344933
0.8345046
0.8345129
0.8345188
0.8345225
0.8345245
0.8345253
0.8340246
0.8340801
0.8341339
0.8341853
0.8342338
0.8342792
0.8343209
0.8343589
0.8343928
0.8344227
0.8344486
0.8344704
0.8344884
0.8345029
0.8345141
0.8345224
0.8345282
0.8345318
0.8345338
0.8345346
0.8344199
0.8344783
0.8345366
0.8345943
0.8346504
0.834704
0.834754
0.8347996
0.8348402
0.8348752
0.8349045
0.8349285
0.8349475
0.8349623
0.8349734
0.8349816
0.8349877
0.8349921
0.8349954
0.8349978
0.8344448
0.8345027
0.83456
0.8346163
0.8346707
0.8347225
0.8347708
0.8348147
0.8348537
0.8348874
0.8349156
0.8349385
0.8349566
0.8349705
0.8349807
0.834988
0.834993
0.8349964
0.8349986
0.835
0.8344443
0.8345021
0.8345595
0.8346158
0.8346702
0.834722
0.8347703
0.8348143
0.8348533
0.834887
0.8349153
0.8349383
0.8349564
0.8349703
0.8349806
0.8349879
0.834993
0.8349964
0.8349986
0.835
0.8344196
0.8344779
0.8345362
0.8345938
0.8346499
0.8347035
0.8347535
0.8347991
0.8348397
0.8348747
0.8349042
0.8349282
0.8349473
0.834962
0.8349732
0.8349815
0.8349876
0.834992
0.8349953
0.8349978
0.8340203
0.8340758
0.8341294
0.8341807
0.8342292
0.8342744
0.8343161
0.8343539
0.8343879
0.8344177
0.8344435
0.8344654
0.8344834
0.8344979
0.8345091
0.8345175
0.8345233
0.834527
0.834529
0.8345298
0.8340232
0.8340788
0.8341324
0.8341838
0.8342322
0.8342775
0.8343192
0.8343571
0.8343911
0.8344209
0.8344468
0.8344686
0.8344866
0.8345011
0.8345124
0.8345207
0.8345264
0.8345301
0.8345321
0.8345329
0.83442
0.8344783
0.8345366
0.8345942
0.8346503
0.8347038
0.8347538
0.8347995
0.83484
0.834875
0.8349044
0.8349284
0.8349474
0.8349622
0.8349733
0.8349816
0.8349876
0.8349921
0.8349954
0.8349978
0.8344443
0.8345021
0.8345594
0.8346157
0.8346702
0.834722
0.8347702
0.8348142
0.8348532
0.8348869
0.8349152
0.8349383
0.8349564
0.8349703
0.8349805
0.8349879
0.8349929
0.8349963
0.8349986
0.835
0.8344443
0.8345021
0.8345594
0.8346157
0.8346702
0.834722
0.8347702
0.8348142
0.8348532
0.8348869
0.8349152
0.8349382
0.8349564
0.8349703
0.8349805
0.8349879
0.8349929
0.8349963
0.8349986
0.835
0.83442
0.8344783
0.8345366
0.8345942
0.8346503
0.8347038
0.8347538
0.8347995
0.83484
0.834875
0.8349044
0.8349284
0.8349474
0.8349622
0.8349733
0.8349816
0.8349876
0.8349921
0.8349954
0.8349978
0.8340232
0.8340787
0.8341324
0.8341837
0.8342322
0.8342774
0.8343191
0.834357
0.834391
0.8344208
0.8344467
0.8344685
0.8344866
0.834501
0.8345123
0.8345206
0.8345263
0.83453
0.834532
0.8345328
0.8340196
0.8340752
0.8341289
0.8341802
0.8342287
0.8342739
0.8343157
0.8343536
0.8343875
0.8344174
0.8344432
0.8344651
0.8344831
0.8344976
0.8345089
0.8345172
0.834523
0.8345267
0.8345287
0.8345295
0.8344191
0.8344775
0.8345358
0.8345935
0.8346496
0.8347032
0.8347533
0.834799
0.8348396
0.8348747
0.8349041
0.8349282
0.8349472
0.834962
0.8349732
0.8349815
0.8349876
0.834992
0.8349953
0.8349978
0.8344439
0.8345017
0.8345591
0.8346155
0.83467
0.8347218
0.8347701
0.8348141
0.8348532
0.8348869
0.8349152
0.8349382
0.8349564
0.8349703
0.8349805
0.8349879
0.8349929
0.8349964
0.8349986
0.835
0.8344444
0.8345023
0.8345597
0.834616
0.8346705
0.8347223
0.8347706
0.8348146
0.8348536
0.8348873
0.8349155
0.8349385
0.8349566
0.8349704
0.8349807
0.8349879
0.834993
0.8349964
0.8349986
0.835
0.8344199
0.8344782
0.8345366
0.8345942
0.8346503
0.8347039
0.834754
0.8347996
0.8348401
0.8348751
0.8349045
0.8349285
0.8349475
0.8349622
0.8349734
0.8349816
0.8349877
0.8349921
0.8349954
0.8349978
0.834023
0.8340786
0.8341325
0.834184
0.8342326
0.834278
0.8343199
0.8343579
0.8343919
0.8344219
0.8344477
0.8344696
0.8344877
0.8345022
0.8345134
0.8345217
0.8345274
0.8345311
0.8345331
0.8345339
0.8340135
0.8340692
0.834123
0.8341744
0.834223
0.8342683
0.8343101
0.834348
0.834382
0.8344119
0.8344378
0.8344597
0.8344778
0.8344924
0.8345037
0.8345121
0.8345179
0.8345216
0.8345237
0.8345245
0.8344174
0.8344759
0.8345344
0.8345922
0.8346485
0.8347023
0.8347525
0.8347983
0.834839
0.8348742
0.8349037
0.8349278
0.834947
0.8349618
0.834973
0.8349813
0.8349875
0.8349919
0.8349953
0.8349978
0.834443
0.834501
0.8345585
0.834615
0.8346696
0.8347216
0.83477
0.834814
0.8348531
0.8348869
0.8349152
0.8349383
0.8349565
0.8349703
0.8349806
0.8349879
0.834993
0.8349964
0.8349986
0.835
0.8344443
0.8345023
0.8345599
0.8346163
0.8346709
0.8347228
0.8347712
0.8348151
0.8348541
0.8348878
0.834916
0.8349389
0.8349569
0.8349707
0.8349808
0.8349881
0.8349931
0.8349965
0.8349986
0.835
0.8344199
0.8344784
0.8345368
0.8345946
0.8346508
0.8347044
0.8347544
0.8348001
0.8348406
0.8348756
0.8349049
0.8349289
0.8349478
0.8349625
0.8349736
0.8349818
0.8349878
0.8349922
0.8349954
0.8349979
0.8340293
0.8340851
0.834139
0.8341906
0.8342393
0.8342848
0.8343267
0.8343648
0.8343988
0.8344288
0.8344547
0.8344765
0.8344945
0.834509
0.8345201
0.8345283
0.834534
0.8345376
0.8345395
0.8345403
0.833998
0.8340535
0.8341072
0.8341585
0.8342069
0.834252
0.8342936
0.8343315
0.8343653
0.8343952
0.834421
0.8344429
0.834461
0.8344757
0.834487
0.8344955
0.8345015
0.8345053
0.8345074
0.8345083
0.8344164
0.8344749
0.8345334
0.8345913
0.8346477
0.8347015
0.8347518
0.8347977
0.8348385
0.8348737
0.8349033
0.8349275
0.8349467
0.8349615
0.8349728
0.8349811
0.8349873
0.8349918
0.8349952
0.8349977
0.8344454
0.8345034
0.8345609
0.8346173
0.8346718
0.8347237
0.8347719
0.8348158
0.8348548
0.8348883
0.8349164
0.8349393
0.8349572
0.8349709
0.834981
0.8349882
0.8349932
0.8349965
0.8349987
0.835
0.8344581
0.834516
0.8345735
0.8346297
0.8346841
0.8347355
0.8347832
0.8348262
0.8348641
0.8348965
0.8349234
0.834945
0.8349617
0.8349743
0.8349835
0.83499
0.8349944
0.8349973
0.8349992
0.8350003
0.8344283
0.8344867
0.834545
0.8346025
0.8346584
0.8347116
0.8347612
0.8348062
0.834846
0.8348802
0.8349087
0.8349319
0.8349501
0.8349642
0.8349747
0.8349826
0.8349883
0.8349925
0.8349956
0.834998
0.8340155
0.8340719
0.8341269
0.8341798
0.8342298
0.8342765
0.8343193
0.834358
0.8343921
0.8344216
0.8344466
0.834467
0.8344832
0.8344955
0.8345044
0.8345103
0.8345138
0.8345155
0.834516
0.8345159
0.8333634
0.8334176
0.8334699
0.8335199
0.8335672
0.8336114
0.8336522
0.8336895
0.833723
0.8337527
0.8337786
0.8338008
0.8338194
0.8338346
0.8338467
0.8338558
0.8338625
0.833867
0.8338697
0.8338708
0.8333286
0.8333829
0.8334356
0.833486
0.833534
0.833579
0.8336209
0.8336594
0.8336943
0.8337256
0.8337531
0.8337768
0.8337969
0.8338135
0.8338268
0.8338369
0.8338443
0.8338492
0.833852
0.8338532
0.8338844
0.8339405
0.8339958
0.8340494
0.8341008
0.8341494
0.8341949
0.8342367
0.8342747
0.8343086
0.8343383
0.8343638
0.8343852
0.8344026
0.8344163
0.8344265
0.8344338
0.8344385
0.834441
0.834442
0.8342961
0.8343537
0.8344111
0.8344675
0.8345225
0.8345754
0.8346256
0.8346728
0.8347164
0.8347562
0.8347921
0.8348239
0.8348519
0.8348762
0.8348973
0.8349154
0.8349311
0.8349447
0.8349569
0.8349679
0.8343391
0.8343964
0.834453
0.8345083
0.834562
0.8346134
0.834662
0.8347074
0.8347493
0.8347873
0.8348214
0.8348516
0.8348778
0.8349004
0.8349197
0.8349359
0.8349496
0.8349611
0.8349707
0.8349789
0.8343261
0.8343833
0.8344399
0.8344952
0.8345489
0.8346004
0.8346492
0.834695
0.8347374
0.8347761
0.834811
0.834842
0.8348692
0.8348928
0.834913
0.8349302
0.8349447
0.8349569
0.8349673
0.8349762
0.8342721
0.8343297
0.834387
0.8344435
0.8344986
0.8345517
0.8346024
0.8346501
0.8346945
0.8347353
0.8347724
0.8348056
0.834835
0.8348608
0.8348834
0.834903
0.8349202
0.8349353
0.834949
0.8349616
0.8338385
0.8338936
0.8339472
0.8339987
0.8340478
0.8340942
0.8341375
0.8341774
0.8342138
0.8342466
0.8342755
0.8343008
0.8343223
0.8343402
0.8343548
0.8343661
0.8343745