/*--------------------------------*- C++ -*----------------------------------*\
| =========                 |                                                 |
| \\      /  F ield         | OpenFOAM: The Open Source CFD Toolbox           |
|  \\    /   O peration     | Version:  4.0                                   |
|   \\  /    A nd           | Web:      www.OpenFOAM.org                      |
|    \\/     M anipulation  |                                                 |
\*---------------------------------------------------------------------------*/
FoamFile
{
    version     2.0;
    format      ascii;
    class       volScalarField;
    location    "60/fuel";
    object      XCH3OHfuel;
}
// * * * * * * * * * * * * * * * * * * * * * * * * * * * * * * * * * * * * * //

dimensions      [0 0 0 0 0 0 0];

internalField   nonuniform List<scalar> 
39776
(
0.8347521
0.8347619
0.8347365
0.8347463
0.8347127
0.8347224
0.8347053
0.834715
0.8347177
0.8347274
0.8347252
0.834735
0.8347525
0.8347623
0.8347542
0.834764
0.8347317
0.8347415
0.8347597
0.8347695
0.8347616
0.8347714
0.8347481
0.8347578
0.834768
0.8347778
0.8347648
0.8347746
0.8347425
0.8347523
0.8347675
0.8347774
0.8347653
0.8347751
0.8347475
0.8347573
0.8347683
0.8347782
0.8347663
0.8347761
0.8347447
0.8347544
0.8347659
0.8347758
0.8347659
0.8347757
0.8347446
0.8347544
0.8347662
0.8347761
0.8347684
0.8347782
0.8347476
0.8347574
0.8347654
0.8347752
0.8347675
0.8347774
0.8347425
0.8347523
0.8347648
0.8347746
0.8347678
0.8347776
0.8347479
0.8347577
0.8347614
0.8347712
0.8347597
0.8347695
0.8347317
0.8347415
0.8347543
0.8347641
0.8347526
0.8347624
0.8347254
0.8347351
0.8347178
0.8347275
0.8347052
0.8347149
0.8347128
0.8347225
0.8347366
0.8347464
0.8347521
0.8347619
0.8347755
0.8347853
0.8348179
0.8348278
0.8348502
0.8348601
0.8348566
0.8348666
0.8348508
0.8348608
0.834853
0.834863
0.8348061
0.834816
0.8348256
0.8348355
0.8348637
0.8348737
0.8348694
0.8348795
0.8348703
0.8348803
0.8348663
0.8348763
0.8348248
0.8348347
0.834826
0.8348359
0.8348659
0.8348759
0.834871
0.834881
0.834871
0.834881
0.8348669
0.8348769
0.8348267
0.8348366
0.8348254
0.8348354
0.8348659
0.8348759
0.8348711
0.8348811
0.8348711
0.8348811
0.8348659
0.8348759
0.8348254
0.8348353
0.8348268
0.8348367
0.8348669
0.834877
0.8348711
0.8348811
0.834871
0.8348811
0.8348659
0.8348759
0.834826
0.8348359
0.8348247
0.8348346
0.8348662
0.8348762
0.8348701
0.8348802
0.8348694
0.8348794
0.8348636
0.8348737
0.8348255
0.8348354
0.8348062
0.8348161
0.8348531
0.8348631
0.8348508
0.8348608
0.8348565
0.8348666
0.8348501
0.8348601
0.8348178
0.8348278
0.8347754
0.8347853
0.8347966
0.8348065
0.8348313
0.8348412
0.8348588
0.8348688
0.8348501
0.83486
0.8348327
0.8348427
0.8348418
0.8348518
0.8348054
0.8348153
0.8348249
0.8348348
0.8348566
0.8348666
0.8348515
0.8348615
0.8348497
0.8348597
0.8348566
0.8348666
0.8348211
0.8348311
0.8348211
0.834831
0.8348562
0.8348662
0.8348515
0.8348615
0.8348507
0.8348607
0.8348575
0.8348675
0.8348226
0.8348325
0.8348211
0.834831
0.8348563
0.8348663
0.8348511
0.8348611
0.8348511
0.8348611
0.8348563
0.8348663
0.8348211
0.834831
0.8348226
0.8348325
0.8348576
0.8348676
0.8348507
0.8348607
0.8348515
0.8348615
0.8348561
0.8348661
0.834821
0.8348309
0.8348212
0.8348311
0.8348566
0.8348666
0.8348497
0.8348597
0.8348515
0.8348615
0.8348566
0.8348667
0.8348248
0.8348348
0.8348055
0.8348154
0.8348419
0.8348518
0.8348327
0.8348427
0.83485
0.83486
0.8348587
0.8348688
0.8348313
0.8348412
0.8347966
0.8348065
0.8347988
0.8348087
0.8348234
0.8348334
0.8348526
0.8348626
0.8348399
0.8348499
0.8348148
0.8348247
0.8348293
0.8348392
0.8347904
0.8348003
0.8348111
0.834821
0.8348441
0.834854
0.8348344
0.8348443
0.8348314
0.8348414
0.8348428
0.8348528
0.8348039
0.8348138
0.8348095
0.8348194
0.8348437
0.8348537
0.8348334
0.8348433
0.8348324
0.8348424
0.8348441
0.8348541
0.8348071
0.834817
0.834808
0.8348179
0.8348434
0.8348533
0.8348326
0.8348425
0.8348326
0.8348425
0.8348433
0.8348533
0.8348079
0.8348178
0.8348073
0.8348171
0.8348442
0.8348541
0.8348325
0.8348424
0.8348334
0.8348433
0.8348436
0.8348536
0.8348094
0.8348193
0.8348039
0.8348138
0.8348428
0.8348527
0.8348314
0.8348413
0.8348343
0.8348443
0.8348441
0.8348541
0.834811
0.8348209
0.8347905
0.8348004
0.8348294
0.8348393
0.8348148
0.8348247
0.8348399
0.8348499
0.8348526
0.8348626
0.8348234
0.8348334
0.8347988
0.8348087
0.8347837
0.8347935
0.8348139
0.8348238
0.8348416
0.8348515
0.8348268
0.8348367
0.8347991
0.834809
0.8348128
0.8348227
0.8347782
0.8347881
0.8347979
0.8348078
0.8348293
0.8348393
0.8348184
0.8348283
0.8348151
0.834825
0.8348252
0.8348351
0.8347912
0.8348011
0.8347981
0.834808
0.8348287
0.8348386
0.8348171
0.834827
0.8348162
0.8348261
0.8348273
0.8348372
0.8347939
0.8348038
0.8347962
0.8348061
0.8348279
0.8348378
0.8348162
0.8348262
0.8348162
0.8348261
0.8348278
0.8348378
0.8347961
0.834806
0.834794
0.8348039
0.8348273
0.8348373
0.8348162
0.8348261
0.834817
0.8348269
0.8348285
0.8348385
0.834798
0.8348078
0.8347912
0.8348011
0.8348251
0.8348351
0.834815
0.834825
0.8348184
0.8348283
0.8348294
0.8348393
0.834798
0.8348078
0.8347783
0.8347881
0.8348128
0.8348227
0.8347991
0.8348089
0.8348267
0.8348366
0.8348415
0.8348515
0.8348139
0.8348238
0.8347836
0.8347935
0.8347714
0.8347812
0.834804
0.8348139
0.8348284
0.8348383
0.8348143
0.8348242
0.8347852
0.834795
0.8347995
0.8348094
0.8347631
0.8347729
0.8347861
0.834796
0.8348158
0.8348257
0.8348044
0.8348143
0.8348003
0.8348102
0.8348105
0.8348204
0.8347773
0.8347871
0.8347857
0.8347956
0.8348149
0.8348248
0.8348026
0.8348125
0.8348015
0.8348114
0.834813
0.8348229
0.8347803
0.8347901
0.8347832
0.8347931
0.8348141
0.834824
0.8348017
0.8348116
0.8348017
0.8348116
0.8348141
0.834824
0.8347832
0.8347931
0.8347803
0.8347902
0.8348131
0.834823
0.8348015
0.8348114
0.8348026
0.8348125
0.8348148
0.8348247
0.8347855
0.8347954
0.8347773
0.8347871
0.8348106
0.8348205
0.8348002
0.8348101
0.8348044
0.8348143
0.8348159
0.8348258
0.8347862
0.8347961
0.8347632
0.834773
0.8347995
0.8348094
0.8347852
0.834795
0.8348142
0.8348241
0.8348284
0.8348383
0.834804
0.8348139
0.8347714
0.8347813
0.8347591
0.8347689
0.8347945
0.8348044
0.8348156
0.8348255
0.8348026
0.8348125
0.8347728
0.8347826
0.8347862
0.8347961
0.8347497
0.8347595
0.8347759
0.8347857
0.8348027
0.8348126
0.8347917
0.8348015
0.8347866
0.8347964
0.8347971
0.834807
0.834764
0.8347738
0.8347728
0.8347826
0.8348016
0.8348115
0.8347894
0.8347992
0.8347881
0.8347979
0.8348001
0.8348099
0.8347677
0.8347775
0.8347699
0.8347798
0.8348005
0.8348104
0.8347885
0.8347984
0.8347885
0.8347983
0.8348005
0.8348104
0.83477
0.8347798
0.8347677
0.8347775
0.8348001
0.83481
0.8347881
0.834798
0.8347894
0.8347992
0.8348014
0.8348113
0.8347727
0.8347825
0.834764
0.8347738
0.8347972
0.834807
0.8347865
0.8347964
0.8347917
0.8348015
0.8348028
0.8348127
0.8347761
0.8347859
0.8347499
0.8347597
0.8347862
0.834796
0.8347727
0.8347826
0.8348026
0.8348125
0.8348156
0.8348255
0.8347945
0.8348044
0.8347592
0.834769
0.8347471
0.8347569
0.8347857
0.8347956
0.8348031
0.8348129
0.8347913
0.8348012
0.8347622
0.834772
0.8347737
0.8347835
0.8347374
0.8347472
0.8347658
0.8347756
0.8347905
0.8348003
0.8347799
0.8347897
0.834774
0.8347838
0.8347856
0.8347955
0.8347514
0.8347612
0.8347595
0.8347693
0.8347891
0.834799
0.8347772
0.8347871
0.8347759
0.8347858
0.834789
0.8347989
0.8347564
0.8347662
0.8347565
0.8347664
0.8347874
0.8347972
0.8347764
0.8347863
0.8347764
0.8347862
0.8347873
0.8347972
0.8347566
0.8347664
0.8347564
0.8347662
0.8347891
0.8347989
0.834776
0.8347858
0.8347772
0.8347871
0.834789
0.8347989
0.8347594
0.8347692
0.8347514
0.8347612
0.8347856
0.8347955
0.8347739
0.8347838
0.8347799
0.8347897
0.8347906
0.8348005
0.8347659
0.8347757
0.8347375
0.8347473
0.8347736
0.8347835
0.8347622
0.834772
0.8347913
0.8348011
0.8348031
0.834813
0.8347857
0.8347956
0.8347471
0.8347569
0.8347349
0.8347447
0.8347769
0.8347867
0.8347911
0.834801
0.8347802
0.8347901
0.8347525
0.8347623
0.8347622
0.834772
0.8347262
0.8347359
0.8347552
0.834765
0.834779
0.8347888
0.8347686
0.8347784
0.8347627
0.8347725
0.8347753
0.8347851
0.8347405
0.8347503
0.8347469
0.8347567
0.8347774
0.8347872
0.834766
0.8347758
0.8347649
0.8347748
0.8347789
0.8347888
0.8347454
0.8347552
0.8347439
0.8347537
0.8347757
0.8347856
0.8347654
0.8347752
0.8347654
0.8347752
0.8347757
0.8347855
0.834744
0.8347538
0.8347454
0.8347552
0.834779
0.8347889
0.8347649
0.8347748
0.834766
0.8347758
0.8347773
0.8347872
0.8347468
0.8347566
0.8347404
0.8347502
0.8347752
0.8347851
0.8347626
0.8347725
0.8347686
0.8347784
0.8347791
0.8347889
0.8347552
0.834765
0.8347263
0.8347361
0.8347622
0.834772
0.8347524
0.8347622
0.8347802
0.83479
0.8347911
0.834801
0.8347769
0.8347867
0.834735
0.8347447
0.8347229
0.8347326
0.8347673
0.8347771
0.8347794
0.8347893
0.8347694
0.8347792
0.8347437
0.8347535
0.8347514
0.8347612
0.8347159
0.8347257
0.8347451
0.8347549
0.8347687
0.8347785
0.8347578
0.8347676
0.8347524
0.8347622
0.8347657
0.8347755
0.8347304
0.8347402
0.8347354
0.8347451
0.8347666
0.8347764
0.8347555
0.8347653
0.8347549
0.8347647
0.8347694
0.8347793
0.8347345
0.8347443
0.8347328
0.8347426
0.8347656
0.8347754
0.8347552
0.834765
0.8347552
0.834765
0.8347655
0.8347753
0.8347329
0.8347427
0.8347345
0.8347443
0.8347695
0.8347794
0.8347549
0.8347647
0.8347555
0.8347653
0.8347666
0.8347764
0.8347354
0.8347451
0.8347304
0.8347401
0.8347657
0.8347755
0.8347524
0.8347622
0.8347578
0.8347676
0.8347688
0.8347786
0.8347451
0.8347549
0.834716
0.8347258
0.8347513
0.8347611
0.8347436
0.8347533
0.8347693
0.8347792
0.8347794
0.8347893
0.8347673
0.8347771
0.8347229
0.8347326
0.8347112
0.8347209
0.8347561
0.8347659
0.8347681
0.8347779
0.8347589
0.8347687
0.8347356
0.8347454
0.8347413
0.8347511
0.8347066
0.8347163
0.834735
0.8347447
0.8347599
0.8347697
0.8347478
0.8347576
0.834743
0.8347528
0.8347563
0.8347661
0.8347206
0.8347304
0.8347256
0.8347354
0.8347571
0.834767
0.8347457
0.8347554
0.8347454
0.8347552
0.8347602
0.83477
0.8347242
0.8347339
0.8347232
0.8347329
0.8347562
0.834766
0.8347455
0.8347553
0.8347455
0.8347553
0.8347561
0.8347659
0.8347232
0.834733
0.8347242
0.8347339
0.8347602
0.8347701
0.8347455
0.8347552
0.8347457
0.8347555
0.8347571
0.8347669
0.8347256
0.8347354
0.8347206
0.8347304
0.8347563
0.8347661
0.834743
0.8347528
0.8347478
0.8347576
0.8347601
0.8347699
0.8347351
0.8347449
0.8347067
0.8347164
0.8347412
0.834751
0.8347355
0.8347452
0.8347589
0.8347687
0.8347681
0.8347779
0.8347562
0.834766
0.8347112
0.834721
0.8347
0.8347097
0.8347443
0.834754
0.8347572
0.834767
0.8347488
0.8347586
0.8347279
0.8347377
0.8347323
0.8347421
0.8346988
0.8347085
0.8347241
0.8347339
0.8347512
0.834761
0.8347386
0.8347484
0.8347342
0.834744
0.8347466
0.8347564
0.8347114
0.8347212
0.8347164
0.8347262
0.8347485
0.8347583
0.8347364
0.8347462
0.8347358
0.8347456
0.83475
0.8347598
0.834714
0.8347237
0.8347145
0.8347243
0.8347473
0.8347571
0.8347362
0.834746
0.8347362
0.834746
0.8347473
0.8347571
0.8347146
0.8347243
0.8347139
0.8347237
0.8347501
0.8347599
0.8347359
0.8347457
0.8347364
0.8347462
0.8347484
0.8347581
0.8347164
0.8347261
0.8347114
0.8347211
0.8347467
0.8347565
0.8347341
0.8347439
0.8347387
0.8347484
0.8347516
0.8347614
0.8347244
0.8347342
0.8346987
0.8347084
0.8347322
0.8347419
0.8347278
0.8347376
0.8347488
0.8347586
0.8347573
0.8347671
0.8347443
0.8347541
0.8347
0.8347097
0.8346892
0.8346989
0.8347324
0.8347422
0.834747
0.8347568
0.8347389
0.8347487
0.8347204
0.8347301
0.8347256
0.8347353
0.8346934
0.8347031
0.8347121
0.8347218
0.8347395
0.8347493
0.8347293
0.8347391
0.8347259
0.8347356
0.8347376
0.8347474
0.834704
0.8347138
0.8347068
0.8347166
0.8347376
0.8347474
0.834727
0.8347368
0.8347258
0.8347356
0.8347374
0.8347472
0.8347045
0.8347142
0.8347068
0.8347165
0.834739
0.8347488
0.8347272
0.834737
0.8347272
0.834737
0.8347389
0.8347487
0.8347068
0.8347165
0.8347045
0.8347142
0.8347375
0.8347473
0.8347259
0.8347357
0.8347271
0.8347368
0.8347376
0.8347474
0.8347068
0.8347165
0.8347038
0.8347136
0.8347376
0.8347474
0.8347258
0.8347355
0.8347293
0.8347391
0.8347399
0.8347497
0.8347124
0.8347221
0.8346933
0.834703
0.8347254
0.8347352
0.8347203
0.8347301
0.8347389
0.8347487
0.834747
0.8347568
0.8347325
0.8347422
0.8346893
0.834699
0.8346794
0.8346891
0.8347214
0.8347311
0.8347373
0.8347471
0.8347289
0.8347387
0.8347131
0.8347229
0.8347214
0.8347312
0.8346913
0.834701
0.8347007
0.8347104
0.8347247
0.8347345
0.834719
0.8347287
0.8347186
0.8347284
0.8347319
0.8347417
0.8346999
0.8347096
0.8346974
0.8347071
0.8347226
0.8347324
0.8347168
0.8347265
0.834716
0.8347258
0.8347241
0.8347339
0.8346951
0.8347049
0.8346998
0.8347095
0.8347311
0.8347409
0.8347186
0.8347283
0.8347185
0.8347283
0.834731
0.8347408
0.8346997
0.8347095
0.8346951
0.8347048
0.8347242
0.834734
0.8347161
0.8347258
0.8347169
0.8347266
0.8347228
0.8347326
0.8346973
0.834707
0.8346994
0.8347092
0.8347316
0.8347414
0.8347185
0.8347282
0.8347191
0.8347288
0.8347251
0.8347348
0.8347009
0.8347106
0.8346911
0.8347008
0.8347213
0.834731
0.834713
0.8347228
0.8347289
0.8347386
0.8347374
0.8347471
0.8347214
0.8347312
0.8346794
0.8346891
0.8346695
0.8346792
0.83471
0.8347198
0.8347264
0.8347362
0.8347181
0.8347278
0.8347059
0.8347157
0.8347168
0.8347266
0.8346887
0.8346984
0.8346908
0.8347005
0.8347091
0.8347188
0.8347082
0.8347179
0.8347127
0.8347225
0.83473
0.8347397
0.834699
0.8347087
0.8346891
0.8346989
0.8347063
0.834716
0.8347062
0.8347159
0.8347068
0.8347166
0.834712
0.8347217
0.8346859
0.8346956
0.8346922
0.8347019
0.8347232
0.834733
0.8347103
0.83472
0.8347102
0.8347199
0.834723
0.8347328
0.8346921
0.8347018
0.8346859
0.8346956
0.8347121
0.8347218
0.8347069
0.8347166
0.8347063
0.834716
0.8347066
0.8347163
0.834689
0.8346987
0.8346984
0.8347081
0.8347296
0.8347394
0.8347125
0.8347223
0.8347083
0.834718
0.8347094
0.8347191
0.834691
0.8347007
0.8346885
0.8346982
0.8347166
0.8347264
0.8347058
0.8347156
0.834718
0.8347278
0.8347264
0.8347361
0.83471
0.8347198
0.8346695
0.8346792
0.8346596
0.8346693
0.8346976
0.8347073
0.8347136
0.8347234
0.8347074
0.8347172
0.8346986
0.8347083
0.8347093
0.8347191
0.8346819
0.8346916
0.8346814
0.8346911
0.8346954
0.8347052
0.8346985
0.8347082
0.8347076
0.8347173
0.8347278
0.8347376
0.8346958
0.8347055
0.8346808
0.8346905
0.8346924
0.8347021
0.8346969
0.8347067
0.8346988
0.8347085
0.834702
0.8347118
0.8346766
0.8346863
0.8346834
0.8346931
0.8347147
0.8347244
0.8347026
0.8347123
0.8347024
0.8347121
0.8347144
0.8347241
0.8346833
0.834693
0.8346766
0.8346863
0.8347021
0.8347118
0.8346988
0.8347085
0.834697
0.8347067
0.8346927
0.8347024
0.8346805
0.8346902
0.8346952
0.8347049
0.8347274
0.8347371
0.8347073
0.8347171
0.8346985
0.8347083
0.8346957
0.8347054
0.8346815
0.8346912
0.8346818
0.8346915
0.8347092
0.8347189
0.8346985
0.8347082
0.8347074
0.8347172
0.8347137
0.8347234
0.8346976
0.8347073
0.8346596
0.8346693
0.8346497
0.8346594
0.8346842
0.8346939
0.8346994
0.8347092
0.8346968
0.8347065
0.8346897
0.8346994
0.8346986
0.8347083
0.834673
0.8346827
0.8346721
0.8346817
0.8346833
0.834693
0.8346884
0.8346981
0.8346997
0.8347095
0.8347181
0.8347278
0.834686
0.8346957
0.8346706
0.8346803
0.8346824
0.8346921
0.8346881
0.8346979
0.83469
0.8346997
0.8346927
0.8347025
0.8346682
0.8346779
0.8346738
0.8346835
0.8347041
0.8347139
0.8346942
0.834704
0.834694
0.8347037
0.8347039
0.8347137
0.8346737
0.8346834
0.8346682
0.8346779
0.8346928
0.8347025
0.83469
0.8346997
0.8346882
0.8346979
0.8346827
0.8346924
0.8346704
0.8346801
0.8346854
0.8346951
0.8347177
0.8347274
0.8346995
0.8347092
0.8346884
0.8346981
0.8346835
0.8346932
0.8346722
0.8346819
0.8346728
0.8346825
0.8346984
0.8347081
0.8346896
0.8346993
0.8346968
0.8347065
0.8346995
0.8347092
0.8346842
0.8346939
0.8346498
0.8346594
0.8346389
0.8346485
0.8346702
0.8346799
0.8346852
0.8346949
0.8346863
0.834696
0.8346805
0.8346901
0.8346854
0.8346951
0.834663
0.8346726
0.834662
0.8346717
0.8346724
0.8346821
0.8346786
0.8346883
0.8346893
0.834699
0.8346999
0.8347096
0.8346736
0.8346833
0.8346624
0.834672
0.8346749
0.8346846
0.8346798
0.8346895
0.834681
0.8346907
0.8346831
0.8346928
0.8346595
0.8346691
0.8346637
0.8346734
0.8346921
0.8347018
0.8346855
0.8346952
0.8346854
0.8346951
0.8346921
0.8347018
0.8346637
0.8346733
0.8346593
0.834669
0.8346831
0.8346928
0.834681
0.8346907
0.8346799
0.8346896
0.8346753
0.834685
0.8346622
0.8346719
0.834673
0.8346827
0.8346995
0.8347092
0.8346891
0.8346988
0.8346786
0.8346883
0.8346725
0.8346822
0.8346621
0.8346718
0.8346628
0.8346725
0.8346851
0.8346948
0.8346803
0.83469
0.8346863
0.834696
0.8346854
0.8346951
0.8346703
0.83468
0.8346389
0.8346486
0.8346275
0.8346371
0.8346573
0.834667
0.8346688
0.8346785
0.8346728
0.8346825
0.8346681
0.8346778
0.8346701
0.8346798
0.8346529
0.8346626
0.834652
0.8346616
0.8346595
0.8346691
0.8346662
0.8346758
0.8346744
0.8346841
0.8346774
0.8346871
0.8346623
0.8346719
0.8346573
0.834667
0.8346668
0.8346765
0.8346691
0.8346788
0.8346687
0.8346784
0.8346702
0.8346799
0.8346518
0.8346615
0.8346543
0.834664
0.8346755
0.8346852
0.8346731
0.8346828
0.834673
0.8346827
0.8346755
0.8346852
0.8346543
0.8346639
0.8346516
0.8346613
0.8346701
0.8346798
0.8346687
0.8346784
0.8346692
0.8346789
0.834667
0.8346767
0.8346572
0.8346668
0.8346618
0.8346714
0.834677
0.8346867
0.8346743
0.8346839
0.8346661
0.8346758
0.8346596
0.8346693
0.834652
0.8346617
0.8346528
0.8346624
0.8346697
0.8346794
0.8346681
0.8346777
0.834673
0.8346826
0.834669
0.8346787
0.8346574
0.834667
0.8346275
0.8346372
0.8346146
0.8346242
0.8346396
0.8346492
0.8346487
0.8346583
0.834656
0.8346657
0.8346523
0.8346619
0.8346509
0.8346605
0.8346404
0.8346501
0.8346405
0.8346501
0.8346433
0.834653
0.8346506
0.8346603
0.834655
0.8346647
0.8346529
0.8346626
0.8346501
0.8346597
0.8346479
0.8346576
0.8346538
0.8346635
0.834656
0.8346657
0.8346543
0.8346639
0.8346542
0.8346638
0.8346413
0.8346509
0.8346421
0.8346518
0.8346535
0.8346632
0.8346563
0.834666
0.8346563
0.834666
0.8346536
0.8346632
0.8346421
0.8346518
0.834641
0.8346506
0.834654
0.8346636
0.8346542
0.8346639
0.8346562
0.8346659
0.8346543
0.8346639
0.8346479
0.8346576
0.8346497
0.8346593
0.8346527
0.8346624
0.8346547
0.8346644
0.834651
0.8346607
0.8346437
0.8346534
0.8346405
0.8346501
0.8346402
0.8346499
0.8346504
0.83466
0.8346523
0.8346619
0.8346559
0.8346656
0.8346486
0.8346583
0.8346396
0.8346493
0.8346146
0.8346242
0.8346007
0.8346103
0.8346236
0.8346332
0.8346259
0.8346356
0.8346344
0.8346441
0.8346323
0.8346419
0.8346261
0.8346357
0.8346312
0.8346409
0.8346345
0.8346442
0.8346278
0.8346374
0.8346325
0.8346422
0.8346322
0.8346418
0.8346265
0.8346361
0.8346411
0.8346508
0.8346428
0.8346525
0.834638
0.8346476
0.8346385
0.8346482
0.8346368
0.8346464
0.8346367
0.8346463
0.834636
0.8346457
0.834633
0.8346426
0.8346282
0.8346379
0.8346342
0.8346439
0.8346344
0.834644
0.8346285
0.8346381
0.8346327
0.8346424
0.8346355
0.8346451
0.8346361
0.8346458
0.8346365
0.8346462
0.8346385
0.8346482
0.8346384
0.834648
0.8346427
0.8346524
0.8346407
0.8346503
0.8346262
0.8346358
0.8346322
0.8346419
0.8346333
0.8346429
0.8346284
0.834638
0.8346344
0.8346441
0.834631
0.8346407
0.8346255
0.8346351
0.8346323
0.8346419
0.8346343
0.834644
0.8346257
0.8346353
0.8346236
0.8346332
0.8346007
0.8346104
0.8345911
0.8346007
0.8345966
0.8346062
0.8345792
0.8345888
0.8345821
0.8345917
0.8345817
0.8345913
0.834595
0.8346046
0.8346273
0.8346369
0.8346267
0.8346364
0.8345967
0.8346063
0.8345858
0.8345954
0.8345807
0.8345903
0.834599
0.8346086
0.8346369
0.8346466
0.8346337
0.8346433
0.8346032
0.8346128
0.8345916
0.8346012
0.83459
0.8345996
0.8345985
0.8346081
0.8346294
0.834639
0.8346272
0.8346368
0.8345967
0.8346063
0.8345846
0.8345942
0.834585
0.8345946
0.8345967
0.8346063
0.8346269
0.8346365
0.8346287
0.8346384
0.8345979
0.8346075
0.8345896
0.8345992
0.8345918
0.8346014
0.8346035
0.8346131
0.8346337
0.8346433
0.8346366
0.8346462
0.8345987
0.8346083
0.834581
0.8345906
0.8345865
0.8345961
0.834597
0.8346066
0.8346267
0.8346363
0.8346271
0.8346367
0.8345946
0.8346043
0.8345816
0.8345912
0.8345819
0.8345915
0.834579
0.8345886
0.8345966
0.8346062
0.8345912
0.8346008
0.8347805
0.8348072
0.834832
0.8348544
0.8348741
0.8348912
0.8349059
0.8349184
0.8349291
0.8349381
0.8349457
0.834952
0.8349572
0.8349615
0.834965
0.8349677
0.8349697
0.8349709
0.8349715
0.8349717
0.8347649
0.8347911
0.8348153
0.8348373
0.8348571
0.8348749
0.8348909
0.8349051
0.8349178
0.8349288
0.8349382
0.834946
0.8349523
0.8349573
0.8349611
0.8349639
0.8349658
0.834967
0.8349676
0.8349679
0.8347409
0.8347657
0.8347877
0.8348088
0.8348294
0.8348497
0.8348702
0.834891
0.8349123
0.8349331
0.8349509
0.8349652
0.8349762
0.8349846
0.8349907
0.834995
0.8349978
0.8349996
0.8350008
0.8350015
0.8347335
0.8347584
0.8347812
0.8348042
0.8348284
0.8348544
0.8348824
0.8349106
0.834937
0.8349595
0.8349767
0.8349883
0.8349951
0.8349988
0.8350006
0.8350014
0.8350017
0.8350018
0.8350018
0.8350018
0.8347459
0.8347715
0.8347959
0.8348213
0.8348482
0.8348769
0.834906
0.8349337
0.8349579
0.8349768
0.8349895
0.8349967
0.835
0.8350013
0.8350017
0.8350018
0.8350018
0.8350019
0.8350019
0.8350019
0.8347535
0.8347783
0.8348005
0.8348222
0.8348455
0.8348708
0.8348981
0.8349258
0.8349502
0.8349693
0.8349825
0.8349905
0.834995
0.8349974
0.8349988
0.8349997
0.8350004
0.8350009
0.8350014
0.8350017
0.8347809
0.8348065
0.8348288
0.8348478
0.8348638
0.8348773
0.8348888
0.8348986
0.834907
0.8349143
0.8349207
0.8349261
0.8349307
0.8349347
0.8349381
0.834941
0.8349435
0.8349455
0.8349468
0.8349473
0.8347826
0.8348079
0.8348298
0.8348482
0.8348636
0.8348766
0.8348876
0.834897
0.8349049
0.8349116
0.8349172
0.8349217
0.8349255
0.8349286
0.8349313
0.8349337
0.8349358
0.8349376
0.8349387
0.8349392
0.83476
0.834784
0.8348042
0.8348226
0.8348423
0.8348641
0.8348882
0.8349142
0.8349376
0.8349566
0.8349707
0.8349806
0.8349874
0.8349919
0.8349949
0.8349971
0.8349988
0.835
0.8350009
0.8350015
0.8347881
0.8348138
0.8348382
0.8348634
0.8348898
0.834916
0.8349404
0.8349614
0.8349776
0.8349886
0.8349952
0.8349987
0.8350004
0.8350012
0.8350016
0.8350017
0.8350018
0.8350018
0.8350018
0.8350019
0.83479
0.8348155
0.8348393
0.834864
0.8348901
0.8349168
0.8349421
0.8349638
0.8349802
0.834991
0.8349969
0.8349998
0.835001
0.8350015
0.8350017
0.8350018
0.8350018
0.8350018
0.8350019
0.8350019
0.8347764
0.8348007
0.8348215
0.8348405
0.8348608
0.8348832
0.834908
0.8349334
0.834955
0.8349714
0.8349824
0.8349893
0.8349935
0.834996
0.8349977
0.8349989
0.8349999
0.8350006
0.8350012
0.8350016
0.8347964
0.8348219
0.8348439
0.8348624
0.8348778
0.8348907
0.8349016
0.8349107
0.8349185
0.834925
0.8349306
0.8349352
0.834939
0.8349422
0.8349449
0.8349473
0.8349493
0.834951
0.8349521
0.8349525
0.8347932
0.8348186
0.8348406
0.834859
0.8348745
0.8348875
0.8348985
0.8349078
0.8349157
0.8349223
0.8349279
0.8349327
0.8349366
0.83494
0.834943
0.8349456
0.8349479
0.8349497
0.8349508
0.8349513
0.8347708
0.834795
0.8348156
0.8348346
0.8348552
0.8348779
0.834903
0.8349286
0.8349505
0.8349674
0.8349792
0.8349869
0.8349918
0.834995
0.8349971
0.8349985
0.8349996
0.8350005
0.8350011
0.8350016
0.834796
0.8348218
0.8348464
0.8348718
0.8348983
0.8349242
0.8349479
0.8349677
0.8349823
0.8349917
0.8349971
0.8349997
0.835001
0.8350015
0.8350017
0.8350018
0.8350018
0.8350018
0.8350018
0.8350019
0.8347937
0.8348193
0.8348434
0.8348684
0.8348946
0.834921
0.8349455
0.8349663
0.8349818
0.8349917
0.8349972
0.8349999
0.835001
0.8350015
0.8350017
0.8350018
0.8350018
0.8350018
0.8350018
0.8350019
0.8347759
0.8348001
0.8348208
0.8348396
0.8348597
0.834882
0.8349067
0.8349321
0.8349539
0.8349704
0.8349816
0.8349887
0.8349931
0.8349957
0.8349975
0.8349988
0.8349998
0.8350006
0.8350012
0.8350016
0.8347968
0.8348222
0.8348442
0.8348627
0.8348781
0.8348909
0.8349018
0.834911
0.8349187
0.8349252
0.8349307
0.8349353
0.8349391
0.8349423
0.8349451
0.8349475
0.8349496
0.8349513
0.8349525
0.8349529
0.8347947
0.8348201
0.8348421
0.8348606
0.8348761
0.834889
0.8348999
0.8349092
0.8349169
0.8349234
0.8349289
0.8349334
0.8349372
0.8349403
0.834943
0.8349454
0.8349476
0.8349493
0.8349504
0.8349509
0.834773
0.8347972
0.8348179
0.834837
0.8348575
0.8348802
0.8349052
0.8349307
0.8349525
0.8349691
0.8349806
0.834988
0.8349926
0.8349954
0.8349973
0.8349986
0.8349997
0.8350005
0.8350011
0.8350016
0.8347944
0.8348201
0.8348444
0.8348696
0.834896
0.8349224
0.8349467
0.8349671
0.8349822
0.8349919
0.8349973
0.8349999
0.835001
0.8350015
0.8350017
0.8350018
0.8350018
0.8350018
0.8350018
0.8350019
0.8347944
0.8348201
0.8348444
0.8348695
0.834896
0.8349223
0.8349466
0.8349671
0.8349822
0.8349919
0.8349973
0.8349999
0.835001
0.8350015
0.8350017
0.8350018
0.8350018
0.8350018
0.8350018
0.8350019
0.834773
0.8347972
0.8348179
0.8348369
0.8348574
0.8348801
0.8349051
0.8349306
0.8349524
0.834969
0.8349805
0.8349879
0.8349925
0.8349954
0.8349973
0.8349986
0.8349997
0.8350005
0.8350011
0.8350016
0.8347947
0.8348201
0.8348421
0.8348606
0.834876
0.834889
0.8348999
0.8349091
0.8349169
0.8349234
0.8349289
0.8349334
0.8349372
0.8349403
0.834943
0.8349455
0.8349476
0.8349493
0.8349505
0.834951
0.8347969
0.8348223
0.8348443
0.8348627
0.8348781
0.834891
0.8349019
0.8349111
0.8349188
0.8349253
0.8349308
0.8349354
0.8349392
0.8349424
0.8349452
0.8349476
0.8349498
0.8349514
0.8349526
0.834953
0.834776
0.8348002
0.8348209
0.8348397
0.8348598
0.834882
0.8349067
0.8349321
0.8349539
0.8349704
0.8349816
0.8349887
0.8349931
0.8349958
0.8349975
0.8349988
0.8349998
0.8350006
0.8350012
0.8350016
0.8347938
0.8348194
0.8348435
0.8348684
0.8348947
0.834921
0.8349456
0.8349663
0.8349818
0.8349917
0.8349972
0.8349999
0.835001
0.8350015
0.8350017
0.8350018
0.8350018
0.8350018
0.8350018
0.8350019
0.834796
0.8348218
0.8348464
0.8348718
0.8348983
0.8349242
0.8349479
0.8349677
0.8349823
0.8349918
0.8349971
0.8349998
0.835001
0.8350015
0.8350017
0.8350018
0.8350018
0.8350018
0.8350018
0.8350019
0.8347709
0.8347951
0.8348157
0.8348347
0.8348553
0.8348781
0.8349031
0.8349287
0.8349507
0.8349675
0.8349793
0.834987
0.8349919
0.834995
0.8349971
0.8349986
0.8349997
0.8350005
0.8350011
0.8350016
0.8347933
0.8348186
0.8348406
0.8348591
0.8348746
0.8348875
0.8348985
0.8349078
0.8349157
0.8349224
0.834928
0.8349327
0.8349367
0.8349401
0.834943
0.8349457
0.8349479
0.8349497
0.8349509
0.8349514
0.8347963
0.8348217
0.8348437
0.8348622
0.8348776
0.8348905
0.8349013
0.8349105
0.8349183
0.8349248
0.8349303
0.8349349
0.8349387
0.8349419
0.8349446
0.834947
0.834949
0.8349507
0.8349518
0.8349522
0.8347762
0.8348005
0.8348213
0.8348403
0.8348606
0.8348831
0.8349079
0.8349333
0.834955
0.8349713
0.8349824
0.8349893
0.8349934
0.834996
0.8349977
0.8349989
0.8349999
0.8350006
0.8350012
0.8350016
0.8347899
0.8348154
0.8348392
0.8348639
0.83489
0.8349168
0.834942
0.8349637
0.8349802
0.8349909
0.8349969
0.8349998
0.835001
0.8350015
0.8350017
0.8350018
0.8350018
0.8350018
0.8350019
0.8350019
0.8347881
0.8348138
0.8348382
0.8348634
0.8348899
0.8349161
0.8349405
0.8349615
0.8349776
0.8349886
0.8349952
0.8349987
0.8350004
0.8350012
0.8350016
0.8350017
0.8350018
0.8350018
0.8350018
0.8350019
0.83476
0.834784
0.8348042
0.8348226
0.8348423
0.8348641
0.8348882
0.8349142
0.8349376
0.8349565
0.8349707
0.8349806
0.8349873
0.8349918
0.8349949
0.8349971
0.8349988
0.835
0.8350009
0.8350015
0.8347827
0.834808
0.8348299
0.8348483
0.8348637
0.8348767
0.8348878
0.8348972
0.8349051
0.8349118
0.8349174
0.834922
0.8349258
0.8349289
0.8349316
0.834934
0.8349361
0.8349379
0.834939
0.8349395
0.8347811
0.8348066
0.834829
0.834848
0.834864
0.8348774
0.8348889
0.8348987
0.8349072
0.8349145
0.8349208
0.8349262
0.8349308
0.8349348
0.8349382
0.8349411
0.8349436
0.8349456
0.8349468
0.8349474
0.8347536
0.8347784
0.8348006
0.8348223
0.8348456
0.8348709
0.8348982
0.8349259
0.8349502
0.8349693
0.8349825
0.8349906
0.834995
0.8349974
0.8349988
0.8349997
0.8350004
0.8350009
0.8350014
0.8350017
0.834746
0.8347716
0.834796
0.8348214
0.8348482
0.834877
0.8349061
0.8349337
0.8349579
0.8349768
0.8349895
0.8349967
0.835
0.8350013
0.8350017
0.8350018
0.8350018
0.8350019
0.8350019
0.8350019
0.8347334
0.8347583
0.8347811
0.8348041
0.8348283
0.8348542
0.8348822
0.8349105
0.8349369
0.8349595
0.8349767
0.8349882
0.8349951
0.8349988
0.8350006
0.8350014
0.8350017
0.8350018
0.8350018
0.8350018
0.834741
0.8347658
0.8347878
0.8348089
0.8348295
0.8348498
0.8348702
0.834891
0.8349124
0.8349332
0.8349509
0.8349652
0.8349763
0.8349847
0.8349907
0.834995
0.8349978
0.8349996
0.8350008
0.8350015
0.8347649
0.8347912
0.8348154
0.8348374
0.8348572
0.834875
0.8348909
0.8349052
0.8349178
0.8349289
0.8349383
0.8349461
0.8349524
0.8349573
0.8349611
0.8349639
0.8349658
0.834967
0.8349677
0.8349679
0.8347805
0.8348071
0.834832
0.8348544
0.8348741
0.8348912
0.8349059
0.8349185
0.8349291
0.8349381
0.8349457
0.834952
0.8349572
0.8349615
0.834965
0.8349677
0.8349697
0.8349709
0.8349716
0.8349717
0.834804
0.8348302
0.8348537
0.834874
0.8348911
0.8349056
0.8349178
0.8349282
0.8349371
0.8349447
0.834951
0.8349563
0.8349607
0.8349644
0.834968
0.8349712
0.8349737
0.8349754
0.8349764
0.8349767
0.8348467
0.8348711
0.8348913
0.8349075
0.8349208
0.8349321
0.8349423
0.8349519
0.8349609
0.8349692
0.8349764
0.8349822
0.8349863
0.8349886
0.8349892
0.8349893
0.8349893
0.8349893
0.8349894
0.8349895
0.8348791
0.8349055
0.8349276
0.8349437
0.8349553
0.8349644
0.8349719
0.8349782
0.8349836
0.834988
0.8349915
0.8349942
0.8349963
0.834998
0.8349993
0.8350002
0.8350009
0.8350014
0.8350016
0.8350018
0.8348856
0.8349116
0.8349325
0.8349466
0.8349562
0.8349638
0.8349709
0.8349777
0.8349841
0.8349897
0.8349942
0.8349974
0.8349995
0.8350007
0.8350014
0.8350017
0.8350018
0.8350018
0.8350018
0.8350019
0.8348798
0.8349057
0.8349264
0.8349412
0.8349523
0.8349619
0.8349709
0.8349794
0.8349868
0.8349927
0.8349969
0.8349995
0.8350009
0.8350015
0.8350017
0.8350018
0.8350018
0.8350019
0.8350019
0.8350019
0.834882
0.8349085
0.8349306
0.8349468
0.8349577
0.8349662
0.8349736
0.8349805
0.8349866
0.8349914
0.834995
0.8349975
0.834999
0.835
0.8350006
0.835001
0.8350013
0.8350016
0.8350017
0.8350018
0.8348348
0.8348606
0.8348831
0.8349017
0.8349169
0.8349295
0.8349404
0.83495
0.8349585
0.8349661
0.8349727