/*--------------------------------*- C++ -*----------------------------------*\
| =========                 |                                                 |
| \\      /  F ield         | OpenFOAM: The Open Source CFD Toolbox           |
|  \\    /   O peration     | Version:  4.0                                   |
|   \\  /    A nd           | Web:      www.OpenFOAM.org                      |
|    \\/     M anipulation  |                                                 |
\*---------------------------------------------------------------------------*/
FoamFile
{
    version     2.0;
    format      ascii;
    class       volScalarField;
    location    "60/fuel";
    object      XCO2fuel;
}
// * * * * * * * * * * * * * * * * * * * * * * * * * * * * * * * * * * * * * //

dimensions      [0 0 0 0 0 0 0];

internalField   nonuniform List<scalar> 
39776
(
0.0002497548
0.0002399547
0.000265309
0.0002555332
0.000289173
0.0002794329
0.0002965755
0.0002868451
0.0002841819
0.0002744333
0.000276608
0.0002668508
0.0002493277
0.0002395288
0.0002476524
0.0002378506
0.0002701214
0.0002603559
0.0002421651
0.0002323545
0.0002403029
0.0002304894
0.0002537982
0.0002440081
0.0002338888
0.0002240649
0.0002370927
0.0002272747
0.0002593662
0.0002495855
0.0002343151
0.0002244924
0.0002365845
0.0002267656
0.0002543243
0.0002445354
0.0002335193
0.000223695
0.0002355899
0.0002257698
0.0002571929
0.0002474098
0.0002359212
0.0002261013
0.0002359455
0.0002261255
0.0002572328
0.0002474498
0.0002356181
0.0002257986
0.0002334484
0.000223624
0.0002542339
0.0002444448
0.0002365002
0.0002266811
0.0002343061
0.0002244833
0.0002593077
0.0002495272
0.0002370573
0.0002272394
0.0002340579
0.0002242345
0.0002539829
0.0002441933
0.0002404282
0.000230615
0.0002421951
0.0002323846
0.0002701329
0.0002603676
0.0002475784
0.0002377767
0.0002492067
0.0002394077
0.0002764993
0.0002667422
0.0002840812
0.0002743324
0.000296666
0.0002869358
0.0002890677
0.000279328
0.0002652557
0.0002554803
0.0002497661
0.0002399666
0.0002263788
0.0002165443
0.0001839274
0.0001740151
0.0001517008
0.0001417092
0.0001452482
0.0001352397
0.000151027
0.0001410324
0.0001488356
0.0001388361
0.0001957328
0.0001858438
0.0001762668
0.0001663368
0.0001381682
0.0001281396
0.0001324393
0.0001223947
0.0001315659
0.0001215193
0.0001355576
0.0001255211
0.0001770555
0.0001671271
0.0001758535
0.0001659228
0.0001359585
0.0001259237
0.0001308674
0.0001208176
0.0001308646
0.0001208144
0.0001349751
0.0001249364
0.0001751463
0.0001652132
0.0001764319
0.0001665021
0.0001359472
0.0001259119
0.0001307557
0.000120705
0.0001307943
0.0001207437
0.0001359748
0.0001259396
0.0001764493
0.0001665195
0.0001751027
0.0001651694
0.0001349176
0.0001248792
0.0001307804
0.0001207303
0.0001308211
0.0001207713
0.0001359659
0.0001259313
0.0001758793
0.0001659488
0.0001771345
0.0001672069
0.0001356569
0.0001256214
0.0001317224
0.0001216757
0.0001325008
0.0001224567
0.0001382129
0.0001281847
0.0001763532
0.0001664237
0.0001956539
0.0001857649
0.000148773
0.0001387737
0.0001510216
0.0001410273
0.0001453053
0.0001352969
0.0001517747
0.0001417827
0.0001840091
0.0001740965
0.0002264184
0.0002165842
0.0002052205
0.0001953477
0.0001705577
0.0001606139
0.0001431018
0.0001330857
0.0001517979
0.0001418056
0.0001691219
0.0001591712
0.0001600666
0.0001500938
0.0001964166
0.0001865248
0.0001769468
0.0001670148
0.0001452199
0.0001352097
0.0001503156
0.0001403193
0.0001521324
0.0001421403
0.0001452332
0.0001352233
0.0001807223
0.000170799
0.0001807631
0.0001708399
0.0001456345
0.0001356264
0.0001503671
0.0001403712
0.000151193
0.0001411988
0.0001443365
0.0001343251
0.0001792996
0.0001693739
0.000180778
0.0001708554
0.0001455412
0.0001355335
0.0001507531
0.0001407586
0.000150771
0.0001407765
0.0001455515
0.0001355439
0.0001807857
0.0001708632
0.0001792802
0.0001693546
0.0001442828
0.0001342714
0.000151125
0.0001411307
0.0001503571
0.0001403612
0.0001457308
0.000135723
0.0001808925
0.0001709696
0.0001806539
0.0001707304
0.000145302
0.0001352921
0.0001521734
0.0001421815
0.0001503584
0.0001403621
0.0001452057
0.0001351955
0.0001770137
0.0001670819
0.0001963718
0.00018648
0.0001599979
0.0001500249
0.000169145
0.0001591943
0.0001518469
0.0001418545
0.0001431065
0.0001330902
0.0001705615
0.0001606176
0.0002052398
0.000195367
0.0002030327
0.0001931546
0.0001784041
0.000168476
0.0001492466
0.000139248
0.0001619138
0.0001519476
0.000187034
0.0001771238
0.000172595
0.0001626516
0.0002114407
0.0002015777
0.0001907873
0.0001808856
0.0001577842
0.0001478075
0.0001675002
0.0001575466
0.0001704388
0.0001604918
0.0001590202
0.0001490465
0.0001979686
0.0001880812
0.0001923224
0.0001824221
0.0001581542
0.0001481778
0.0001684923
0.0001585404
0.0001694327
0.0001594828
0.0001577719
0.0001477943
0.0001947335
0.0001848385
0.0001938969
0.0001839995
0.0001584865
0.0001485105
0.0001692789
0.0001593282
0.0001692789
0.0001593282
0.0001585364
0.0001485606
0.0001939731
0.0001840759
0.000194604
0.0001847089
0.0001576959
0.0001477178
0.0001693671
0.0001594167
0.0001684996
0.0001585477
0.0001582655
0.0001482893
0.0001924496
0.0001825496
0.0001979652
0.000188077
0.0001590913
0.0001491169
0.0001704924
0.0001605455
0.0001675235
0.0001575699
0.0001577358
0.0001477589
0.0001908132
0.0001809115
0.0002113663
0.0002015031
0.0001724975
0.0001625536
0.000187076
0.0001771655
0.0001619587
0.000151992
0.0001492455
0.0001392471
0.0001784074
0.0001684795
0.0002030647
0.0001931862
0.0002181904
0.0002083394
0.0001879842
0.0001780751
0.0001603036
0.0001503326
0.0001750981
0.0001651615
0.0002027569
0.0001928767
0.0001891034
0.000179194
0.0002236392
0.0002137967
0.0002039466
0.0001940689
0.0001725294
0.0001625861
0.0001834975
0.0001735779
0.0001867502
0.0001768373
0.0001766993
0.0001667648
0.0002106245
0.0002007599
0.0002037285
0.0001938499
0.0001731724
0.0001632307
0.0001848005
0.000174884
0.0001856954
0.0001757805
0.0001745847
0.0001646457
0.0002079345
0.0001980649
0.0002056458
0.0001957716
0.0001739552
0.0001640157
0.0001856089
0.0001756945
0.0001856184
0.0001757039
0.0001740188
0.0001640794
0.0002057132
0.0001958386
0.000207828
0.0001979583
0.0001745143
0.0001645752
0.0001856204
0.0001757054
0.000184828
0.0001749116
0.0001733061
0.0001633644
0.0002038948
0.0001940164
0.0002106299
0.000200765
0.0001767052
0.0001667705
0.0001868116
0.0001768986
0.0001835021
0.0001735824
0.0001724533
0.0001625098
0.0002038999
0.0001940221
0.0002235683
0.0002137256
0.0001890484
0.0001791388
0.0002027954
0.0001929152
0.0001751489
0.0001652118
0.0001603148
0.0001503433
0.000187995
0.0001780856
0.0002182086
0.0002083572
0.0002304515
0.0002206204
0.0001978366
0.0001879457
0.0001734941
0.0001635522
0.0001875991
0.0001776879
0.0002166629
0.0002068074
0.000202359
0.000192475
0.000238795
0.0002289768
0.0002157458
0.0002058882
0.0001860792
0.0001761637
0.0001974908
0.0001875982
0.0002015509
0.000191668
0.0001913108
0.0001814073
0.0002245873
0.000214748
0.0002161512
0.0002062965
0.0001869457
0.0001770341
0.0001992464
0.0001893601
0.000200376
0.0001904916
0.0001888334
0.0001789257
0.0002215916
0.0002117474
0.0002186152
0.0002087656
0.0001877163
0.0001778069
0.000200108
0.0001902232
0.0002001258
0.0001902409
0.0001877728
0.0001778635
0.0002186273
0.0002087777
0.0002215359
0.0002116915
0.0001887972
0.0001788893
0.0002003126
0.000190428
0.0001992811
0.0001893947
0.0001870876
0.0001771769
0.0002163454
0.0002064904
0.0002245626
0.0002147226
0.0001912804
0.0001813763
0.0002016095
0.0001917261
0.000197484
0.0001875926
0.0001859726
0.0001760581
0.0002156051
0.0002057485
0.0002386707
0.0002288535
0.0002023554
0.0001924726
0.0002166904
0.0002068359
0.0001876145
0.0001777059
0.0001734746
0.0001635353
0.0001978106
0.0001879224
0.0002304194
0.0002205908
0.0002427225
0.0002329138
0.0002073709
0.000197501
0.0001862554
0.000176344
0.0001992553
0.0001893704
0.0002290614
0.0002192303
0.0002156363
0.0002057804
0.0002521223
0.0002423281
0.000225948
0.0002161112
0.0001991102
0.0001892239
0.0002101867
0.0002003214
0.0002153011
0.0002054451
0.0002047143
0.0001948381
0.0002378838
0.0002280678
0.0002290382
0.0002192075
0.0002002857
0.0001904022
0.0002124736
0.0002026127
0.0002137662
0.0002039057
0.0002017891
0.0001919057
0.0002341756
0.0002243513
0.0002319264
0.0002220989
0.0002013088
0.0001914258
0.0002133481
0.0002034871
0.0002133866
0.0002035257
0.0002013737
0.0001914908
0.0002319026
0.0002220751
0.000234158
0.0002243338
0.0002017406
0.0001918588
0.0002137061
0.0002038472
0.0002125005
0.0002026397
0.0002004366
0.0001905534
0.0002291486
0.0002193181
0.0002378617
0.0002280459
0.0002046804
0.0001948045
0.0002153409
0.0002054853
0.0002101855
0.0002003205
0.0001990057
0.0001891196
0.000225772
0.0002159353
0.0002519799
0.0002421859
0.0002156834
0.0002058279
0.0002291086
0.0002192779
0.000199286
0.0001894013
0.0001862539
0.0001763426
0.0002073574
0.0001974875
0.0002426998
0.0002328916
0.0002547867
0.0002449971
0.0002161371
0.0002062828
0.0001987969
0.0001889091
0.0002105385
0.0002006733
0.0002396328
0.0002298175
0.0002281702
0.0002183345
0.0002644485
0.0002546712
0.0002360775
0.000226256
0.0002113737
0.0002015089
0.0002219837
0.0002121379
0.0002278911
0.0002180554
0.0002162541
0.0002063974
0.0002504256
0.0002406289
0.0002423555
0.0002325466
0.0002127586
0.0002028985
0.0002246203
0.0002147809
0.0002259123
0.0002160748
0.0002128578
0.0002029969
0.0002454997
0.0002356952
0.0002453043
0.0002355003
0.0002144611
0.0002046042
0.0002254117
0.0002155737
0.000225462
0.0002156241
0.0002145195
0.0002046627
0.0002452838
0.0002354798
0.0002454983
0.0002356938
0.0002127927
0.0002029318
0.0002258803
0.0002160427
0.000224634
0.0002147946
0.0002128555
0.0002029956
0.0002424216
0.0002326128
0.0002504818
0.0002406852
0.0002162488
0.0002063921
0.0002279284
0.0002180928
0.0002219786
0.0002121328
0.0002112592
0.0002013943
0.0002359455
0.0002261239
0.0002643389
0.0002545614
0.0002282047
0.000218369
0.0002396932
0.0002298779
0.0002105703
0.000200705
0.0001987913
0.0001889036
0.000216117
0.0002062627
0.0002547676
0.0002449779
0.0002669069
0.000257135
0.0002249916
0.0002151526
0.0002107481
0.0002008846
0.0002216247
0.0002117812
0.0002493262
0.0002395279
0.000239639
0.0002298241
0.0002756776
0.0002659181
0.000246639
0.000236836
0.0002228865
0.0002130439
0.0002332926
0.0002234679
0.0002391644
0.0002293491
0.0002265843
0.0002167473
0.000261333
0.0002515527
0.000254987
0.0002451973
0.0002244986
0.0002146589
0.0002358742
0.0002260535
0.000236922
0.0002271027
0.0002229051
0.0002130617
0.0002564615
0.000246672
0.0002579268
0.0002481401
0.0002261235
0.0002162846
0.0002364521
0.0002266305
0.000236488
0.0002266664
0.0002261876
0.0002163486
0.000257888
0.0002481011
0.0002564348
0.0002466452
0.0002228274
0.0002129822
0.0002369113
0.0002270904
0.000235877
0.0002260563
0.000224526
0.0002146864
0.0002550278
0.0002452382
0.0002614498
0.0002516692
0.0002266172
0.0002167799
0.0002392157
0.0002294003
0.00023329
0.0002234649
0.0002227881
0.000212945
0.000246635
0.0002368318
0.0002755228
0.0002657628
0.0002396379
0.0002298227
0.0002494086
0.0002396101
0.0002216595
0.0002118157
0.0002107384
0.0002008748
0.0002249571
0.000215118
0.0002668826
0.0002571103
0.0002789767
0.0002692212
0.0002345696
0.0002247463
0.0002224227
0.0002125796
0.0002324552
0.0002226293
0.0002581662
0.0002483789
0.0002505
0.0002406999
0.0002859415
0.0002761936
0.000256782
0.0002469919
0.0002331501
0.0002233221
0.0002440599
0.0002342502
0.0002494083
0.0002396068
0.0002361501
0.0002263267
0.0002714162
0.000261648
0.0002664793
0.000256704
0.0002352764
0.0002254536
0.0002463869
0.0002365821
0.0002469867
0.0002371826
0.0002324161
0.0002225881
0.0002673398
0.0002575672
0.0002690077
0.0002592374
0.0002362954
0.0002264739
0.0002466561
0.0002368515
0.0002466734
0.0002368688
0.000236335
0.0002265135
0.0002689566
0.0002591862
0.0002673185
0.0002575461
0.0002323158
0.0002224878
0.0002469548
0.0002371508
0.0002463834
0.0002365787
0.0002353009
0.0002254777
0.0002665011
0.0002567265
0.0002715026
0.0002617351
0.0002361646
0.0002263418
0.0002494496
0.0002396488
0.0002440631
0.0002342522
0.0002330452
0.0002232158
0.0002567702
0.0002469788
0.0002858237
0.0002760744
0.0002505149
0.0002407137
0.0002582921
0.000248504
0.0002325177
0.0002226892
0.0002224409
0.0002125952
0.0002345497
0.0002247238
0.0002789714
0.0002692134
0.0002906982
0.0002809574
0.0002457106
0.0002359043
0.0002337777
0.0002239527
0.0002429546
0.0002331447
0.000266278
0.0002565031
0.0002605817
0.0002507982
0.000295267
0.0002855326
0.0002668846
0.0002571106
0.0002419878
0.0002321752
0.0002540735
0.0002442806
0.0002588153
0.0002490322
0.0002455527
0.0002357487
0.0002812051
0.0002714547
0.0002762122
0.0002664546
0.0002447085
0.0002349036
0.0002561913
0.0002464048
0.000256443
0.0002466568
0.0002416883
0.000231879
0.000277682
0.0002679275
0.0002786964
0.0002689424
0.0002456976
0.000235894
0.0002563173
0.0002465307
0.0002563059
0.0002465192
0.0002457099
0.0002359062
0.0002786164
0.0002688621
0.0002777005
0.0002679462
0.0002416054
0.0002317961
0.0002563956
0.0002466094
0.0002561894
0.000246403
0.0002448005
0.0002349963
0.0002762518
0.0002664927
0.0002812537
0.0002715017
0.0002455664
0.0002357607
0.0002588838
0.0002490992
0.0002540407
0.0002442489
0.0002417383
0.0002319268
0.0002667168
0.0002569441
0.0002951649
0.000285432
0.0002606569
0.000250875
0.0002663788
0.0002566061
0.0002429444
0.0002331389
0.0002337355
0.0002239149
0.0002456274
0.0002358254
0.0002906165
0.00028088
0.0003019014
0.0002921793
0.000257597
0.0002478135
0.0002446115
0.0002348086
0.0002530417
0.0002432522
0.0002739225
0.0002641632
0.0002695305
0.0002597638
0.0003030618
0.000293341
0.0002777564
0.0002680021
0.0002506655
0.0002408712
0.0002632081
0.000253433
0.0002676723
0.0002579034
0.0002552251
0.0002454373
0.0002904166
0.0002806795
0.0002854168
0.0002756729
0.0002533679
0.000243578
0.0002654276
0.0002556558
0.0002660732
0.0002563001
0.0002518933
0.0002420995
0.0002878962
0.000278154
0.0002873377
0.0002775936
0.0002545271
0.0002447358
0.0002656455
0.0002558717
0.000265638
0.0002558641
0.0002545496
0.0002447585
0.0002872864
0.0002775424
0.0002879352
0.0002781934
0.00025176
0.0002419685
0.0002659632
0.0002561924
0.0002654291
0.0002556575
0.0002535028
0.0002437133
0.0002854585
0.0002757148
0.000290479
0.0002807423
0.0002551913
0.0002454037
0.0002677531
0.0002579846
0.0002631837
0.0002534089
0.0002502756
0.000240481
0.0002774102
0.0002676558
0.000303145
0.0002934245
0.0002696937
0.0002599274
0.0002740108
0.0002642518
0.0002530392
0.0002432498
0.0002445907
0.0002347878
0.000257558
0.0002477747
0.0003018484
0.0002921268
0.0003126306
0.0003029221
0.0002694305
0.0002596641
0.0002548417
0.0002450523
0.0002629603
0.0002531836
0.000281456
0.0002717052
0.0002762675
0.0002665076
0.0003084468
0.0002987299
0.000289794
0.0002800542
0.0002623139
0.0002525362
0.000272564
0.0002628008
0.0002760027
0.0002662436
0.0002642475
0.0002544704
0.0002978115
0.0002880836
0.0002950104
0.0002852795
0.0002642524
0.0002544801
0.0002748051
0.0002650472
0.0002760235
0.0002662672
0.0002644269
0.0002546552
0.0002973599
0.0002876325
0.0002950623
0.0002853306
0.0002628578
0.0002530813
0.000274644
0.0002648853
0.0002746596
0.000264901
0.0002629234
0.0002531469
0.0002950796
0.0002853479
0.0002974016
0.0002876742
0.0002643043
0.0002545325
0.0002759174
0.000266161
0.0002747877
0.0002650298
0.0002642643
0.000254492
0.0002950419
0.0002853111
0.0002980084
0.0002882807
0.0002642768
0.0002544998
0.0002761029
0.000266344
0.0002725276
0.0002627644
0.0002619246
0.0002521464
0.0002894962
0.0002797561
0.0003085644
0.0002988477
0.0002764389
0.0002666792
0.000281543
0.0002717922
0.0002629501
0.0002531733
0.0002548155
0.0002450261
0.0002694012
0.0002596349
0.0003125862
0.0003028776
0.0003224583
0.0003127616
0.0002804551
0.0002707039
0.0002645113
0.0002547385
0.0002729574
0.0002631976
0.0002887421
0.0002790033
0.0002804305
0.0002706783
0.0003105999
0.0003008875
0.0003011763
0.0002914533
0.0002771134
0.0002673595
0.0002828608
0.0002731144
0.0002832068
0.0002734596
0.0002699638
0.0002601961
0.0003020017
0.0002922783
0.0003044764
0.0002947573
0.0002792339
0.0002694834
0.0002850519
0.0002753083
0.0002858397
0.0002760966
0.0002777099
0.0002679565
0.0003067112
0.0002969933
0.000302033
0.0002923082
0.000270742
0.0002609746
0.0002832732
0.0002735241
0.0002833214
0.0002735723
0.0002708559
0.0002610882
0.0003021082
0.0002923832
0.0003067378
0.0002970198
0.0002776404
0.0002678847
0.0002857851
0.0002760396
0.0002850016
0.0002752579
0.0002790476
0.0002692968
0.000304548
0.000294829
0.0003024217
0.0002926985
0.0002702143
0.0002604468
0.0002833675
0.0002736201
0.0002827822
0.0002730353
0.0002767641
0.0002670095
0.0003009585
0.0002912349
0.0003107308
0.0003010183
0.0002805895
0.0002708372
0.0002888317
0.0002790928
0.0002729694
0.0002632094
0.0002644858
0.0002547129
0.0002804279
0.0002706766
0.000322418
0.0003127209
0.0003323328
0.000322647
0.0002918251
0.000282089
0.0002754462
0.0002656891
0.0002837874
0.0002740423
0.0002959128
0.0002861807
0.0002850468
0.0002752988
0.0003131836
0.0003034725
0.0003110317
0.0003013182
0.0002927759
0.0002830401
0.0002936672
0.0002839319
0.0002891218
0.0002793791
0.0002718754
0.0002621071
0.0003028573
0.0002931321
0.0003127086
0.0003029972
0.000295594
0.0002858642
0.0002956377
0.0002859067
0.0002950262
0.0002852939
0.0002898512
0.0002801125
0.0003159729
0.0003062678
0.0003096774
0.0002999638
0.0002786316
0.0002688765
0.0002915463
0.0002818093
0.0002916627
0.0002819259
0.000278841
0.0002690861
0.0003097927
0.0003000792
0.0003159606
0.0003062554
0.0002897789
0.0002800403
0.0002949834
0.0002852512
0.0002955729
0.0002858419
0.0002952943
0.0002855638
0.0003128725
0.0003031628
0.000303431
0.0002937081
0.000272239
0.0002624727
0.0002893201
0.0002795793
0.0002936032
0.0002838667
0.0002924858
0.0002827481
0.0003108861
0.0003011709
0.0003133474
0.000303635
0.000285227
0.0002754776
0.0002960245
0.0002862903
0.0002838481
0.0002740986
0.0002754728
0.0002657114
0.000291842
0.0002821017
0.0003323435
0.0003226534
0.0003422676
0.000332591
0.0003042988
0.0002945771
0.0002882265
0.0002784852
0.0002944199
0.0002846868
0.0003032435
0.0002935213
0.0002925192
0.0002827835
0.0003199337
0.0003102329
0.0003204994
0.0003107982
0.0003064175
0.0002966993
0.0003033355
0.0002936138
0.0002942642
0.0002845324
0.0002740509
0.0002642908
0.000306027
0.0002963113
0.0003210638
0.0003113669
0.0003094305
0.0002997183
0.0003049131
0.0002951948
0.000303064
0.000293343
0.0002998197
0.0002900945
0.0003252951
0.0003156024
0.00031844
0.0003087392
0.0002871475
0.0002774055
0.0002992772
0.0002895513
0.0002994362
0.0002897106
0.0002874548
0.0002777131
0.0003185687
0.0003088673
0.0003252622
0.0003155691
0.0002997964
0.000290071
0.0003030661
0.0002933448
0.0003048569
0.0002951382
0.000309133
0.00029942
0.0003213206
0.0003116218
0.0003066745
0.0002969571
0.000274479
0.0002647171
0.0002945188
0.0002847851
0.0003033135
0.0002935918
0.0003061841
0.0002964659
0.0003203585
0.0003106574
0.0003200991
0.0003103988
0.0002927018
0.0002829665
0.0003033347
0.0002936136
0.0002944192
0.0002846888
0.0002881894
0.0002784508
0.0003042405
0.0002945215
0.0003422111
0.0003325371
0.0003521372
0.0003424741
0.0003176612
0.0003079587
0.000302424
0.0002927039
0.0003050733
0.0002953564
0.0003121317
0.0003024237
0.000303237
0.0002935184
0.0003288695
0.0003191814
0.0003297923
0.0003201041
0.0003185846
0.0003088825
0.0003134812
0.000303774
0.0003021139
0.000292393
0.0002837825
0.0002740394
0.0003158739
0.0003061712
0.0003312081
0.0003215222
0.0003194378
0.0003097359
0.0003137082
0.0003040002
0.000311849
0.0003021372
0.0003091052
0.0002993893
0.0003336557
0.0003239703
0.0003280376
0.0003183462
0.0002977063
0.0002879778
0.0003076163
0.0002979001
0.0003078387
0.0002981227
0.0002979184
0.0002881901
0.0003281282
0.000318437
0.0003336862
0.0003240011
0.0003090722
0.0002993584
0.0003118372
0.0003021273
0.0003136439
0.0003039361
0.0003191159
0.0003094139
0.000331439
0.0003217534
0.0003164913
0.0003067894
0.0002841905
0.0002744478
0.0003023385
0.000292618
0.0003134241
0.000303717
0.0003183813
0.0003086792
0.0003296622
0.0003199739
0.0003290437
0.0003193559
0.0003034403
0.000293722
0.0003122376
0.0003025297
0.0003050723
0.0002953555
0.0003023924
0.0002926723
0.0003176136
0.0003079112
0.0003520923
0.0003424293
0.0003629745
0.0003533231
0.0003316384
0.0003219522
0.0003166132
0.0003069087
0.0003155286
0.0003058229
0.0003214038
0.0003117056
0.0003164674
0.0003067641
0.0003388897
0.0003292116
0.0003398383
0.00033016
0.0003294652
0.000319774
0.0003232149
0.0003135176
0.0003125845
0.0003028759
0.0003019655
0.0002922467
0.0003282524
0.0003185643
0.0003394944
0.0003298163
0.0003269108
0.0003172169
0.0003220727
0.0003123743
0.0003208268
0.0003111277
0.0003187631
0.0003090608
0.00034239
0.0003327159
0.0003381685
0.0003284907
0.0003097285
0.0003000179
0.0003163291
0.0003066256
0.0003164893
0.0003067859
0.0003097861
0.0003000752
0.0003382026
0.0003285247
0.0003425169
0.000332843
0.000318785
0.0003090831
0.0003208377
0.0003111386
0.0003219408
0.0003122425
0.0003265908
0.0003168968
0.0003396674
0.0003299895
0.0003288166
0.000319129
0.0003023378
0.0002926191
0.0003127777
0.0003030693
0.0003232543
0.0003135568
0.0003293532
0.0003196618
0.0003397257
0.0003300473
0.0003390722
0.0003293942
0.0003167116
0.0003070084
0.0003215576
0.0003118595
0.000315511
0.0003058052
0.0003164948
0.0003067902
0.0003315704
0.0003218843
0.0003629228
0.0003532713
0.000374379
0.0003647394
0.0003445457
0.0003348739
0.0003330207
0.0003233372
0.0003290121
0.0003193239
0.0003337258
0.0003240439
0.0003317111
0.0003220281
0.0003489206
0.0003392554
0.0003499023
0.0003402367
0.0003423939
0.0003327189
0.0003356924
0.0003260111
0.0003274479
0.0003177594
0.0003244635
0.0003147737
0.0003395971
0.0003299214
0.0003445182
0.0003348452
0.0003350839
0.0003253993
0.0003327647
0.000323079
0.0003331289
0.0003234443
0.000331669
0.0003219817
0.0003500096
0.0003403418
0.0003475521
0.0003378827
0.0003263473
0.0003166557
0.0003287285
0.0003190386
0.0003288496
0.0003191597
0.0003263493
0.0003166569
0.0003475979
0.0003379283
0.0003502285
0.000340561
0.0003317719
0.0003220835
0.0003331564
0.0003234701
0.0003326575
0.0003229718
0.000334805
0.0003251201
0.0003446994
0.0003350264
0.0003400968
0.0003304212
0.0003248156
0.0003151257
0.0003276007
0.0003179121
0.0003357433
0.0003260619
0.0003422114
0.0003325361
0.0003498328
0.000340167
0.0003490811
0.0003394159
0.0003321098
0.0003224269
0.0003337921
0.0003241103
0.0003288945
0.0003192064
0.0003328766
0.0003231932
0.0003444814
0.0003348096
0.0003743117
0.000364672
0.0003872755
0.0003776487
0.0003622577
0.000352605
0.0003531822
0.0003435214
0.0003458358
0.0003361668
0.0003495948
0.000339929
0.0003509857
0.0003413229
0.0003614435
0.0003517899
0.0003613927
0.0003517373
0.0003585513
0.0003488913
0.0003512533
0.0003415863
0.0003468103
0.0003371417
0.0003489122
0.0003392471
0.0003517739
0.000342109
0.0003539264
0.0003442621
0.0003480437
0.0003383731
0.0003458511
0.0003361798
0.0003475848
0.0003379154
0.0003476804
0.0003380102
0.0003605664
0.0003509112
0.0003597355
0.0003500802
0.0003483246
0.0003386594
0.0003455648
0.0003358956
0.0003455648
0.0003358956
0.0003482914
0.0003386255
0.0003597565
0.0003501018
0.0003608635
0.0003512092
0.0003479031
0.0003382344
0.0003476529
0.0003379843
0.0003456398
0.0003359688
0.0003475825
0.0003379125
0.0003539378
0.0003442758
0.0003521742
0.0003425118
0.0003491601
0.0003394975
0.0003471342
0.0003374677
0.0003508523
0.0003411853
0.0003581298
0.0003484695
0.0003613885
0.0003517329
0.0003616284
0.0003519747
0.0003514793
0.0003418164
0.0003495777
0.0003399113
0.0003459058
0.0003362342
0.0003532233
0.0003435599
0.0003622332
0.0003525779
0.0003872356
0.0003776061
0.0004011678
0.0003915521
0.0003782886
0.0003686495
0.0003759159
0.0003662765
0.0003674338
0.0003577855
0.0003695576
0.0003599124
0.0003757968
0.0003661607
0.000370622
0.0003609775
0.0003673427
0.0003576928
0.0003740958
0.0003644522
0.0003693355
0.0003596876
0.0003696579
0.0003600149
0.0003753676
0.000365732
0.0003607149
0.0003510607
0.0003590579
0.0003494012
0.0003639027
0.0003542503
0.0003633393
0.0003536873
0.0003650933
0.0003554425
0.0003651983
0.0003555468
0.0003658208
0.0003561705
0.0003688837
0.0003592377
0.0003736418
0.0003640029
0.0003676352
0.0003579894
0.0003674924
0.0003578463
0.0003733929
0.0003637533
0.0003691106
0.000359464
0.0003663602
0.0003567101
0.0003657532
0.0003561023
0.0003653063
0.0003556555
0.0003633105
0.0003536574
0.0003634855
0.0003538324
0.000359114
0.0003494551
0.0003611797
0.0003515236
0.0003756991
0.0003660615
0.0003696123
0.0003599668
0.0003685858
0.0003589371
0.0003734823
0.0003638381
0.0003674208
0.0003577707
0.0003708434
0.0003611985
0.0003763673
0.0003667309
0.0003695812
0.0003599366
0.000367506
0.0003578595
0.0003761486
0.0003665108
0.0003782851
0.0003686477
0.0004011063
0.0003914924
0.0004107147
0.0004011092
0.0004052239
0.0003956132
0.0004226529
0.000413062
0.0004197957
0.0004102021
0.0004201681
0.0004105758
0.000406895
0.0003972908
0.0003745953
0.0003649542
0.0003751289
0.0003654881
0.0004051594
0.0003955506
0.0004160924
0.0004064934
0.000421147
0.0004115546
0.0004028707
0.0003932619
0.0003649317
0.00035528
0.0003681527
0.0003585043
0.0003986236
0.0003890087
0.0004102429
0.0004006386
0.0004118689
0.0004022638
0.0004033172
0.0003937051
0.0003724885
0.0003628435
0.0003746699
0.0003650267
0.000405187
0.0003955785
0.0004172909
0.0004076939
0.0004168597
0.0004072623
0.0004051598
0.0003955513
0.0003749881
0.0003653455
0.0003731348
0.0003634908
0.0004039194
0.0003943099
0.0004122774
0.0004026746
0.000410088
0.0004004834
0.0003983898
0.0003887749
0.0003681749
0.0003585267
0.000365287
0.0003556359
0.0004031965
0.0003935883
0.0004208701
0.0004112777
0.0004153289
0.0004057299
0.0004048792
0.0003952706
0.000375183
0.0003655425
0.0003747471
0.0003651062
0.0004072065
0.0003976023
0.0004202409
0.0004106486
0.0004199363
0.0004103426
0.0004228308
0.0004132398
0.0004052259
0.000395615
0.0004106839
0.0004010783
0.0002213279
0.0001946941
0.0001698587
0.0001474434
0.0001277043
0.0001106061
9.593244e-05
8.340686e-05
7.275791e-05
6.37491e-05
5.618254e-05
4.987885e-05
4.46699e-05
4.038892e-05
3.689933e-05
3.415908e-05
3.217097e-05
3.091912e-05
3.031059e-05
3.014915e-05
0.0002369589
0.0002107527
0.0001865408
0.0001645636
0.0001447549
0.0001269554
0.0001109893
9.672146e-05
8.408427e-05
7.306247e-05
6.365235e-05
5.58219e-05
4.951715e-05
4.459504e-05
4.079825e-05
3.799315e-05
3.604697e-05
3.483129e-05
3.420612e-05
3.400158e-05
0.0002609402
0.0002361369
0.0002141168
0.000193042
0.000172474
0.0001521191
0.0001316768
0.0001108822
8.955235e-05
6.874012e-05
5.100233e-05
3.668395e-05
2.561216e-05
1.724194e-05
1.114328e-05
6.901674e-06
4.071131e-06
2.229899e-06
1.060665e-06
3.683814e-07
0.0002683668
0.00024342
0.0002206594
0.0001976506
0.0001734192
0.0001474839
0.0001194813
9.122105e-05
6.485786e-05
4.23244e-05
2.514858e-05
1.359416e-05
6.718751e-06
3.030406e-06
1.255634e-06
4.844823e-07
1.763463e-07
6.039042e-08
1.874619e-08
4.894222e-09
0.0002559132
0.0002303774
0.0002059547
0.0001805826
0.0001536968
0.000124939
9.584747e-05
6.815479e-05
4.394883e-05
2.505274e-05
1.233162e-05
5.179104e-06
1.863596e-06
5.859956e-07
1.664148e-07
4.441206e-08
1.150855e-08
2.901958e-09
7.205835e-10
1.934025e-10
0.0002483232
0.0002235464
0.0002013624
0.000179613
0.0001563407
0.0001310707
0.0001037117
7.603329e-05
5.170205e-05
3.259272e-05
1.938081e-05
1.13328e-05
6.879404e-06
4.478643e-06
3.087241e-06
2.159109e-06
1.463513e-06
9.197023e-07
5.001618e-07
1.988656e-07
0.0002209164
0.0001953729
0.0001730175
0.0001540166
0.0001380221
0.0001245297
0.0001130661
0.0001032565
9.481607e-05
8.750714e-05
8.118881e-05
7.576363e-05
7.112723e-05
6.716405e-05
6.375423e-05
6.080911e-05
5.831633e-05
5.636716e-05
5.509913e-05
5.457819e-05
0.000219236
0.0001939328
0.0001720633
0.0001536595
0.0001382437
0.0001252505
0.0001142188
0.0001048497
9.691915e-05
9.025296e-05
8.470004e-05
8.012508e-05
7.637463e-05
7.324978e-05
7.054765e-05
6.813373e-05
6.601039e-05
6.429187e-05
6.313459e-05
6.263418e-05
0.0002418215
0.0002178341
0.0001976747
0.0001792959
0.0001595463
0.0001377997
0.0001136905
8.765216e-05
6.426741e-05
4.529332e-05
3.114347e-05
2.120458e-05
1.448331e-05
9.984843e-06
6.909478e-06
4.71748e-06
3.094505e-06
1.87814e-06
9.851148e-07
3.770687e-07
0.0002137162
0.000188053
0.0001636691
0.0001384734
0.000112028
8.587193e-05
6.146815e-05
4.045245e-05
2.425293e-05
1.325626e-05
6.660277e-06
3.126838e-06
1.407866e-06
6.255402e-07
2.793542e-07
1.249734e-07
5.460517e-08
2.23115e-08
8.02296e-09
2.352509e-09
0.0002118476
0.0001863535
0.0001625493
0.0001378506
0.0001117779
8.502095e-05
5.976457e-05
3.805022e-05
2.16121e-05
1.089581e-05
4.911916e-06
2.034022e-06
8.099731e-07
3.268528e-07
1.38059e-07
6.048928e-08
2.630711e-08
1.070937e-08
3.807338e-09
1.063997e-09
0.0002254239
0.0002011269
0.0001803843
0.0001613918
0.0001410993
0.0001186556
9.382819e-05
6.849225e-05
4.683213e-05
3.048039e-05
1.940819e-05
1.250707e-05
8.370447e-06
5.835235e-06
4.155238e-06
2.931397e-06
1.982715e-06
1.236168e-06
6.63527e-07
2.56461e-07
0.0002054071
0.0001799844
0.0001579748
0.0001394719
0.0001240454
0.0001111428
0.0001002838
9.11141e-05
8.336259e-05
7.681044e-05
7.128148e-05
6.666698e-05
6.284299e-05
5.966251e-05
5.695876e-05
5.46006e-05
5.255345e-05
5.090182e-05
4.979356e-05
4.932296e-05
0.0002086282
0.0001832481
0.0001612892
0.0001428089
0.0001273499
0.0001143587
0.000103372
9.406556e-05
8.61887e-05
7.953722e-05
7.391613e-05
6.919249e-05
6.522413e-05
6.184362e-05
5.888956e-05
5.626387e-05
5.398951e-05
5.218666e-05
5.100581e-05
5.051703e-05
0.0002310199
0.0002068401
0.0001862471
0.0001672267
0.0001466558
0.0001239446
9.88908e-05
7.329589e-05
5.131111e-05
3.445611e-05
2.265453e-05
1.491346e-05
1.000672e-05
6.881085e-06
4.797864e-06
3.315506e-06
2.20544e-06
1.359598e-06
7.261559e-07
2.822541e-07
0.0002058301
0.0001800385
0.0001554324
0.0001300441
0.0001035775
7.769432e-05
5.399557e-05
3.419823e-05
1.95511e-05
1.010401e-05
4.766632e-06
2.103859e-06
9.008904e-07
3.884394e-07
1.720303e-07
7.751074e-08
3.434721e-08
1.425718e-08
5.197905e-09
1.507786e-09
0.0002081126