/*--------------------------------*- C++ -*----------------------------------*\
| =========                 |                                                 |
| \\      /  F ield         | OpenFOAM: The Open Source CFD Toolbox           |
|  \\    /   O peration     | Version:  4.0                                   |
|   \\  /    A nd           | Web:      www.OpenFOAM.org                      |
|    \\/     M anipulation  |                                                 |
\*---------------------------------------------------------------------------*/
FoamFile
{
    version     2.0;
    format      ascii;
    class       volScalarField;
    location    "60/fuel";
    object      XCO2fuel;
}
// * * * * * * * * * * * * * * * * * * * * * * * * * * * * * * * * * * * * * //

dimensions      [0 0 0 0 0 0 0];

internalField   nonuniform List<scalar> 
39776
(
0.001705612
0.001685642
0.001050853
0.001030498
0.0006368627
0.0006161046
0.0006069897
0.0005861962
0.0006182119
0.0005974354
0.000646096
0.0006253975
0.001063662
0.001043378
0.001032322
0.001012012
0.0006425192
0.000621816
0.0006180581
0.0005973239
0.0006177646
0.000597093
0.0006431389
0.0006225
0.001045111
0.001024874
0.001036028
0.001015783
0.0006418266
0.000621185
0.0006169306
0.0005962804
0.0006174419
0.0005967924
0.0006421035
0.0006214858
0.001040233
0.001020014
0.001037274
0.001017052
0.0006416912
0.0006210728
0.0006175065
0.0005968576
0.0006175081
0.0005968595
0.0006416723
0.0006210549
0.001037345
0.001017125
0.001040949
0.001020712
0.0006426253
0.0006219891
0.0006179536
0.0005972865
0.0006174067
0.0005967391
0.0006418481
0.0006212121
0.001037751
0.001017465
0.001047138
0.001026858
0.0006444536
0.0006237708
0.0006189452
0.0005982305
0.0006176211
0.0005969049
0.0006419383
0.000621255
0.0010314
0.001011109
0.001062692
0.001042426
0.0006454613
0.0006247813
0.0006165837
0.0005958677
0.000603766
0.0005830829
0.0006334562
0.0006128131
0.001045082
0.001024846
0.001696063
0.001676217
0.001730791
0.001710962
0.001175878
0.001155753
0.0007651958
0.0007447249
0.0007222736
0.0007017591
0.0007352159
0.0007147169
0.0007890481
0.0007686049
0.001221646
0.001201561
0.001180047
0.001159932
0.0007797934
0.0007593392
0.0007343415
0.000713841
0.0007360241
0.0007155261
0.0007856821
0.0007652167
0.001204734
0.001184619
0.001188658
0.00116853
0.0007820665
0.0007615953
0.0007353514
0.0007148328
0.000737224
0.0007166596
0.0007852436
0.0007647291
0.001199358
0.001179192
0.001195149
0.001174978
0.0007844171
0.0007638997
0.0007371953
0.0007166302
0.0007371829
0.0007166186
0.000784376
0.0007638609
0.00119522
0.001175051
0.001199403
0.001179235
0.0007842629
0.0007637939
0.0007362259
0.0007157084
0.00073542
0.0007149024
0.0007821063
0.0007616375
0.001189192
0.001169067
0.001204849
0.001184752
0.0007856873
0.000765239
0.0007363403
0.0007158422
0.0007342227
0.0007137232
0.0007795583
0.0007591065
0.001179694
0.001159581
0.001221157
0.001201071
0.0007887738
0.0007683293
0.0007346971
0.0007141985
0.0007212634
0.0007007512
0.0007643631
0.000743879
0.001174104
0.001153967
0.00172693
0.001707102
0.00192959
0.001909849
0.001384613
0.001364602
0.0009036129
0.0008832105
0.000834873
0.0008144125
0.0008499355
0.0008294913
0.0009330701
0.0009126986
0.001401208
0.00138117
0.001352203
0.001332133
0.0009173772
0.0008969896
0.0008466834
0.0008262353
0.0008497593
0.0008293151
0.0009270189
0.0009066422
0.001381925
0.001361922
0.001360834
0.001340816
0.000919633
0.0008992949
0.000846708
0.0008263077
0.0008482084
0.0008278107
0.000923103
0.0009027895
0.001372881
0.001352891
0.001367552
0.001347557
0.0009215874
0.0009012696
0.0008473758
0.0008269949
0.0008473531
0.0008269733
0.0009215345
0.0009012197
0.001367645
0.001347651
0.001372861
0.001352869
0.0009229344
0.0009026176
0.0008479981
0.000827599
0.0008467274
0.0008263283
0.0009196578
0.0008993228
0.001361256
0.00134124
0.001382249
0.001362244
0.0009272418
0.0009068621
0.0008499612
0.000829516
0.0008465952
0.0008261481
0.000917162
0.0008967773
0.001351846
0.001331778
0.001400903
0.001380862
0.0009329136
0.0009125395
0.0008496002
0.0008291557
0.0008341722
0.0008137146
0.0009026887
0.0008822931
0.001382676
0.001362671
0.001926411
0.001906671
0.00219075
0.002171109
0.001662991
0.001643125
0.001060887
0.00104066
0.0009453141
0.0009250217
0.0009593937
0.0009391157
0.001086777
0.001066596
0.001586108
0.001566234
0.001549159
0.001529264
0.001058708
0.001038502
0.0009534361
0.0009331524
0.0009585212
0.0009382431
0.001077527
0.001057339
0.001571028
0.001551147
0.001555713
0.001535802
0.001065045
0.001044825
0.0009552629
0.0009349616
0.0009574642
0.0009371661
0.001072996
0.001052786
0.00156599
0.00154604
0.001562013
0.001542058
0.001070356
0.001050092
0.0009575659
0.0009372181
0.0009575405
0.0009371942
0.001070327
0.001050067
0.001562062
0.00154211
0.001566077
0.001546124
0.00107412
0.001053858
0.0009585578
0.0009382106
0.0009553201
0.0009350199
0.001065101
0.001044885
0.001556063
0.001536155
0.001571911
0.001552008
0.001078209
0.001057998
0.0009586983
0.0009384183
0.0009533885
0.0009331058
0.001058569
0.001038367
0.001548848
0.001528954
0.001585901
0.001566025
0.00108663
0.001066445
0.0009591349
0.0009388561
0.0009447438
0.0009244549
0.001059467
0.001039266
0.001660454
0.001640614
0.002187883
0.002168242
0.002454558
0.002435005
0.001934169
0.001914422
0.001210267
0.001190143
0.001046255
0.001026025
0.001059529
0.001039263
0.00122264
0.001202485
0.001772731
0.00175288
0.001744213
0.001724346
0.001184872
0.001164689
0.001049896
0.001029623
0.001057291
0.001037025
0.00121142
0.001191258
0.00176063
0.001740772
0.001748044
0.001728178
0.001190381
0.001170248
0.001050276
0.00103005
0.001053111
0.001032889
0.001200162
0.00118004
0.001753347
0.001733533
0.001750284
0.001730484
0.001198956
0.001178847
0.001052959
0.001032754
0.001052931
0.001032728
0.001198929
0.001178825
0.00175027
0.001730472
0.001752931
0.001733131
0.001199986
0.001179877
0.001052941
0.001032735
0.001049882
0.001029676
0.001190498
0.001170365
0.001746995
0.001727174
0.001759742
0.001739924
0.001210508
0.001190384
0.001056339
0.001036113
0.00105022
0.001029931
0.001185139
0.001164942
0.001744485
0.001724602
0.001773163
0.001753292
0.001223149
0.001202973
0.001060889
0.001040566
0.00104847
0.00102814
0.001212077
0.001191857
0.001935441
0.001915599
0.002455569
0.002435914
0.002725428
0.002705839
0.002199501
0.002179737
0.001361611
0.001341458
0.001142833
0.001122552
0.001150826
0.001130554
0.001346453
0.00132634
0.001951692
0.001931881
0.00192669
0.001906867
0.001291375
0.001271223
0.001132306
0.001112058
0.001140757
0.00112057
0.001324226
0.001304152
0.001938869
0.001919105
0.001928443
0.001908673
0.001303189
0.001283097
0.001133423
0.001113247
0.001136269
0.001116098
0.001311842
0.00129178
0.001931969
0.001912222
0.001930693
0.001910942
0.001313893
0.001293828
0.001137687
0.001117515
0.001137666
0.001117496
0.001313898
0.001293838
0.001930648
0.0019109
0.001932359
0.001912594
0.001312235
0.001292154
0.001136671
0.001116483
0.001133706
0.001113519
0.001303202
0.00128312
0.001929226
0.001909425
0.001939842
0.001920043
0.001324951
0.001304839
0.001141391
0.001121168
0.001131848
0.001111621
0.001290733
0.001270606
0.001925925
0.001906124
0.001951121
0.001931328
0.001346013
0.001325916
0.001149559
0.001129344
0.00114053
0.001120349
0.001358711
0.001338663
0.002195489
0.002175828
0.002721038
0.002701543
0.002992758
0.002973335
0.002440506
0.002420933
0.001483655
0.001463679
0.001220943
0.001200826
0.001225031
0.001204921
0.001447965
0.001427984
0.002115283
0.002095611
0.002084583
0.002064897
0.00138178
0.001361757
0.001199864
0.001179739
0.00121048
0.001190363
0.001417193
0.00139718
0.002104476
0.002084785
0.002096155
0.002076458
0.001400466
0.001380439
0.001205394
0.001185256
0.001208812
0.00118864
0.001408934
0.001388878
0.002100073
0.002080342
0.00209953
0.002079796
0.001409976
0.001389916
0.001210342
0.001190169
0.001210321
0.00119015
0.001409985
0.00138993
0.002099471
0.00207974
0.002100165
0.002080431
0.001408055
0.001388032
0.001207968
0.001187832
0.001205431
0.001185296
0.001400612
0.00138059
0.002096336
0.002076642
0.002104382
0.002084704
0.001416904
0.001396902
0.001210569
0.00119045
0.001199689
0.001179566
0.0013814
0.001361383
0.002084077
0.002064394
0.002115045
0.002095371
0.001447847
0.001427863
0.00122459
0.001204481
0.001220047
0.001199937
0.001482456
0.001462478
0.00243834
0.002418764
0.002989929
0.002970509
0.003257024
0.003237668
0.002664555
0.002645037
0.001590703
0.001570728
0.001290537
0.00127041
0.001289458
0.001269336
0.001530129
0.001510139
0.002268247
0.002248579
0.002241474
0.002221793
0.001469644
0.001449618
0.00126358
0.001243443
0.001273737
0.001253608
0.001502233
0.001482229
0.002255782
0.002236147
0.002248881
0.002229241
0.00148497
0.00146499
0.001267671
0.001247575
0.001270048
0.001249955
0.001492459
0.001472504
0.002250761
0.00223114
0.002250224
0.0022306
0.001490666
0.001470704
0.001270463
0.001250383
0.001270455
0.001250378
0.001490707
0.00147075
0.002250167
0.002230545
0.002250841
0.002231217
0.001492233
0.001472273
0.001269875
0.00124978
0.001267719
0.001247625
0.001485186
0.001465211
0.002249008
0.002229371
0.002255932
0.002236294
0.001502087
0.001482078
0.001273735
0.001253604
0.001263413
0.001243278
0.001469225
0.001449204
0.002241008
0.002221331
0.002268083
0.002248413
0.001530243
0.001510249
0.001289176
0.001269055
0.001289856
0.001269737
0.001589362
0.0015694
0.002662129
0.002642623
0.003254292
0.00323494
0.003511867
0.00349257
0.002870399
0.00285094
0.001683198
0.001663305
0.001349915
0.001329879
0.001343543
0.001323508
0.001599272
0.00157937
0.002403961
0.002384393
0.002381314
0.002361735
0.001548312
0.001528381
0.001319328
0.00129928
0.001327502
0.001307461
0.001571765
0.001551851
0.002391091
0.002371518
0.002387477
0.002367885
0.001565008
0.00154507
0.001324626
0.001304565
0.001326396
0.001306338
0.001572548
0.001552619
0.002389313
0.002369687
0.002384362
0.002364731
0.001562774
0.001542796
0.001325275
0.001305176
0.001325266
0.001305169
0.00156279
0.001542817
0.002384486
0.002364858
0.00238948
0.002369851
0.001573362
0.00155339
0.001327302
0.001307205
0.00132475
0.001304691
0.001565346
0.001545413
0.002387612
0.002368023
0.002391669
0.002372078
0.00157184
0.001551905
0.001327401
0.001307358
0.001318971
0.001298924
0.001547518
0.001527592
0.002380843
0.002361267
0.002403916
0.002384345
0.001599737
0.001579832
0.001343385
0.001323351
0.001349456
0.001329427
0.001681551
0.001661687
0.002867545
0.002848113
0.00350923
0.003489937
0.00375453
0.003735285
0.003061104
0.003041695
0.001768515
0.00174866
0.001404977
0.001384957
0.00139448
0.001374421
0.001662662
0.001642737
0.002528417
0.002508835
0.002510051
0.002490461
0.001622532
0.001602584
0.001372242
0.00135217
0.001377312
0.001357245
0.001634569
0.001614631
0.002501185
0.002481594
0.002512785
0.002493195
0.001646951
0.001627052
0.001379481
0.001359452
0.001379081
0.001359053
0.001645868
0.001625973
0.002511891
0.002492341
0.002502281
0.00248274
0.001628622
0.001608729
0.001373931
0.001353913
0.00137391
0.001353895
0.001628605
0.001608717
0.002502428
0.00248289
0.002511639
0.0024921
0.001645658
0.001625772
0.001378935
0.001358919
0.001379247
0.001359234
0.001647378
0.00162748
0.002511762
0.002492207
0.002499923
0.002480361
0.001633467
0.001613556
0.001376361
0.001356326
0.001372261
0.001352173
0.00162222
0.001602257
0.002510183
0.002490577
0.002529041
0.002509438
0.001663647
0.001643698
0.001395783
0.001375669
0.001406962
0.001386856
0.001769895
0.001749962
0.003061814
0.003042327
0.00375536
0.003736029
0.003988113
0.003968806
0.003242927
0.003223453
0.001853272
0.001833341
0.001459423
0.00143932
0.001442784
0.001422678
0.001721707
0.001701768
0.002639869
0.002620281
0.002626538
0.002606944
0.001693275
0.00167332
0.001420948
0.001400864
0.001421558
0.001401528
0.001690434
0.001670534
0.002592997
0.002573446
0.002623145
0.0026036
0.001726229
0.00170634
0.001432029
0.00141202
0.001427717
0.001407708
0.001708463
0.001688588
0.002623483
0.002603959
0.002617007
0.002597478
0.001699018
0.001679135
0.001423754
0.001403742
0.001423731
0.001403721
0.001698987
0.00167911
0.002617074
0.002597548
0.002623911
0.002604372
0.001708791
0.001688899
0.001428081
0.001408058
0.001432356
0.001412337
0.001726392
0.001706514
0.002623612
0.002604043
0.002593368
0.002573787
0.001690809
0.001670876
0.001421945
0.001401885
0.001420276
0.001400218
0.001692424
0.001672499
0.002625401
0.002605834
0.00263882
0.002619254
0.00172128
0.001701362
0.001441479
0.001421431
0.001457118
0.001437114
0.001850308
0.001830482
0.00323866
0.003219289
0.003983638
0.003964424
0.004203096
0.00418392
0.003409142
0.00338981
0.001931506
0.001911712
0.001506799
0.001486827
0.001484021
0.001464043
0.001775458
0.001755616
0.002737
0.002717512
0.002728053
0.002708561
0.001755975
0.001736121
0.001463388
0.001443401
0.001461683
0.001441697
0.00174092
0.001721051
0.002670478
0.002650958
0.00272041
0.002700903
0.001797947
0.001778099
0.00148136
0.001461369
0.001472506
0.001452479
0.001763407
0.001743515
0.002718674
0.002699136
0.002722663
0.002703123
0.001771717
0.001751823
0.001473616
0.001453588
0.001473585
0.001453559
0.001771652
0.001751764
0.002722669
0.002703132
0.002718782
0.002699241
0.001762669
0.001742804
0.001471786
0.00145179
0.001481465
0.001461477
0.001798196
0.001778354
0.002720297
0.002700793
0.002669777
0.002650268
0.001740498
0.001720638
0.001461622
0.001441635
0.001463115
0.001443131
0.001755395
0.001735547
0.002727319
0.002707831
0.002736503
0.002717014
0.00177544
0.001755595
0.001483626
0.001463651
0.001505778
0.001485815
0.001930193
0.001910402
0.003406736
0.003387406
0.004200132
0.004180961
0.004407297
0.004388159
0.00356701
0.003547703
0.00200759
0.001987781
0.001553645
0.001533652
0.001525116
0.001505114
0.001825528
0.001805663
0.002816465
0.002796956
0.002821138
0.002801627
0.001821217
0.001801346
0.001507298
0.001487289
0.001501491
0.001481482
0.001790188
0.001770309
0.002745146
0.002725649
0.002807376
0.002787895
0.001859074
0.001839254
0.001525751
0.001505785
0.001511822
0.001491851
0.001811147
0.001791324
0.002794682
0.002775213
0.002814394
0.002794929
0.001835632
0.001815815
0.001517653
0.001497696
0.00151762
0.001497665
0.00183559
0.001815778
0.00281434
0.002794878
0.002794694
0.002775222
0.001811053
0.001791225
0.001511702
0.001491729
0.001525841
0.001505877
0.001859286
0.001839471
0.002807173
0.002787695
0.002744653
0.002725153
0.001790006
0.001770123
0.001501406
0.001481394
0.001507055
0.001487048
0.001820676
0.001800812
0.00282047
0.002800964
0.002816031
0.002796519
0.001825513
0.001805644
0.001524831
0.001504831
0.001552687
0.001532702
0.002005972
0.001986177
0.003564347
0.003545053
0.004404434
0.004385301
0.004599964
0.00458086
0.003716854
0.003697579
0.002080685
0.002060937
0.001597334
0.00157741
0.001561778
0.001541843
0.001868096
0.001848296
0.002876781
0.002857334
0.00290149
0.002882049
0.001887634
0.001867839
0.001549894
0.001529954
0.001538741
0.001518799
0.001837532
0.001817722
0.00282354
0.00280408
0.002887506
0.002868048
0.00191315
0.001893353
0.001566633
0.001546688
0.001549508
0.001529557
0.001857605
0.00183779
0.002865274
0.002845779
0.00289843
0.002878942
0.001897388
0.001877551
0.00156141
0.001541429
0.001561369
0.00154139
0.001897304
0.001877471
0.002898346
0.002878861
0.002865373
0.002845875
0.001858532
0.001838677
0.001550368
0.001530381
0.001566776
0.001546834
0.001913359
0.001893566
0.002887284
0.002867829
0.002823486
0.002804009
0.001837774
0.001817944
0.001538679
0.001518734
0.001549591
0.001529654
0.001886825
0.001867036
0.002901018
0.00288158
0.002877253
0.002857804
0.001868337
0.001848533
0.001561629
0.001541695
0.001596563
0.001576648
0.002078923
0.002059202
0.003713893
0.003694645
0.004597205
0.004578106
0.004781419
0.004762345
0.003855172
0.003835926
0.002144379
0.002124653
0.001638838
0.00161892
0.00159733
0.001577365
0.001906644
0.001886812
0.002922762
0.002903281
0.002973573
0.002954104
0.001951858
0.001932043
0.001594639
0.001574673
0.001577586
0.001557614
0.00188564
0.001865802
0.002903179
0.002883694
0.002963041
0.00294357
0.001959154
0.001939374
0.001603898
0.001583971
0.001585306
0.001565372
0.001900719
0.00188092
0.002926601
0.002907154
0.0029713
0.002951876
0.001951612
0.001931842
0.001601656
0.00158174
0.001601602
0.001581689
0.001951491
0.001931726
0.002971191
0.002951769
0.002926381
0.002906943
0.001900745
0.001880952
0.001585276
0.001565352
0.001603731
0.001583817
0.001959415
0.001939635
0.002961891
0.00294245
0.002901879
0.002882417
0.001884864
0.001865048
0.001576812
0.001556866
0.001594841
0.001574855
0.001951677
0.001931843
0.002974059
0.00295457
0.002924312
0.002904806
0.001907707
0.001887848
0.001598744
0.001578725
0.001640536
0.001620538
0.002145426
0.002125627
0.003855618
0.003836298
0.004782033
0.004762878
0.004956612
0.00493746
0.003993158
0.003973831
0.002217943
0.002198133
0.001683792
0.001663785
0.001633879
0.001613855
0.00194297
0.001923108
0.002961741
0.002942225
0.003037848
0.003018352
0.002018495
0.001998661
0.001640614
0.001620626
0.001615961
0.001596018
0.001932396
0.001912585
0.002980831
0.002961376
0.003033546
0.003014102
0.002007016
0.00198723
0.001641922
0.001622007
0.001621983
0.001602061
0.001944709
0.001924922
0.002991818
0.002972383
0.003040767
0.003021343
0.002007592
0.001987826
0.00164408
0.001624167
0.001644029
0.001624118
0.0020075
0.00198774
0.003040606
0.003021186
0.002992099
0.00297265
0.001945171
0.001925367
0.001622379
0.001602444
0.001642223
0.0016223
0.002006948
0.001987175
0.003033702
0.003014237
0.002980949
0.002961468
0.001932798
0.001912958
0.001616278
0.001596309
0.001639637
0.001619681
0.002017119
0.00199732
0.003036816
0.003017353
0.002961436
0.002941949
0.001942598
0.001922764
0.001632495
0.001612535
0.001681203
0.001661298
0.002214503
0.002194801
0.003988478
0.003969257
0.004951817
0.004932759
0.005118092
0.005099056
0.004123078
0.00410388
0.002290628
0.002270949
0.001724489
0.001704608
0.001664868
0.001644966
0.001974121
0.001954348
0.002995966
0.002976534
0.003092375
0.003072968
0.002078472
0.002058736
0.001681475
0.001661583
0.001651472
0.001631569
0.001975672
0.001955889
0.003045888
0.003026459
0.003099225
0.003079807
0.002056602
0.002036846
0.001679949
0.001660044
0.001658707
0.001638763
0.00199055
0.001970742
0.003066776
0.003047322
0.003108885
0.003089439
0.002054273
0.002034484
0.001683075
0.001663139
0.001683033
0.0016631
0.002054215
0.002034431
0.003108697
0.003089254
0.003066646
0.003047189
0.001989915
0.001970133
0.001658046
0.001638131
0.001679968
0.001660065
0.002056491
0.00203674
0.003098953
0.003079539
0.003045381
0.003025962
0.0019754
0.001955624
0.00165142
0.001631515
0.001681
0.001661111
0.00207771
0.002057981
0.003091844
0.003072441
0.00299595
0.002976517
0.001974165
0.001954389
0.001664406
0.001644506
0.001723312
0.00170344
0.002288935
0.00226926
0.004120286
0.004101091
0.005114842
0.005095811
0.005277816
0.005258804
0.004263748
0.004244565
0.002390657
0.002370968
0.001776266
0.001756364
0.001701429
0.001681501
0.002011311
0.001991509
0.003040497
0.003021034
0.003148482
0.003129047
0.002146915
0.002127163
0.001727714
0.0017078
0.001689733
0.001669804
0.002022691
0.002002896
0.003114792
0.003095382
0.003164438
0.003145038
0.002113768
0.002094034
0.001720453
0.001700567
0.001696783
0.00167689
0.002043207
0.002023464
0.003141064
0.003121673
0.0031734
0.003154015
0.002100696
0.002080969
0.001719635
0.001699761
0.001719605
0.001699734
0.002100672
0.00208095
0.003173198
0.003153816
0.003140965
0.003121571
0.002043046
0.002023298
0.001696644
0.001676747
0.001720376
0.001700493
0.002113505
0.002093776
0.003164173
0.003144776
0.003114798
0.003095385
0.002022708
0.002002908
0.001689698
0.001669767
0.001727353
0.001707441
0.002146349
0.002126602
0.003147984
0.003128552
0.00304035
0.003020885
0.002011364
0.00199156
0.001701076
0.00168115
0.001775252
0.00175536
0.002388901
0.002369228
0.004260816
0.004241647
0.005274677
0.005255671
0.005445987
0.005427
0.004441481
0.00442233
0.002556964
0.00253736
0.001847952
0.001828124
0.001743907
0.001724042
0.002058536
0.002038796
0.003120895
0.003101497
0.003213251
0.003193874
0.002227369
0.002207689
0.001778975
0.001759128
0.001733693
0.001713828
0.002090333
0.002070608
0.003191976
0.003172599
0.003234294
0.003214911
0.002187092
0.002167385
0.001767115
0.001747251
0.001742393
0.00172252
0.002118094
0.002098367
0.00321765
0.003198235
0.003243204
0.003223792
0.002170372
0.002150627
0.001765288
0.001745391
0.001765258
0.001745363
0.002170335
0.002150596
0.003243007
0.003223598
0.003217645
0.003198227
0.002118855
0.002099091
0.001743158
0.001723251
0.001767043
0.00174718
0.002186781
0.002167079
0.003234063
0.003214683
0.003192446
0.003173052
0.002090845
0.002071102
0.001733715
0.001713848
0.001778705
0.00175886
0.002226951
0.002207277
0.003212763
0.00319339
0.003120574
0.003101173
0.002058558
0.002038815
0.001743594
0.001723731
0.001846968
0.00182715
0.002554808
0.002535232
0.004438202
0.004419077
0.005442971
0.005423988
0.00563548
0.005616518
0.004639727
0.004620609
0.002728749
0.002709194
0.001926203
0.001906394
0.001792969
0.00177308
0.002115413
0.002095649
0.00319767
0.003178246
0.003289304
0.003269901
0.002314313
0.002294619
0.00183416
0.001814291
0.001782019
0.00176213
0.002165418
0.002145675
0.003275516
0.003256114
0.003312966
0.003293569
0.002264469
0.002244787
0.001815361
0.001795516
0.001790697
0.001770843
0.00219828
0.00217858
0.003297683
0.003278316
0.003317722
0.003298369
0.002241956
0.002222278
0.001810815
0.00179098
0.001810785
0.001790952
0.002241925
0.002222252
0.003317534
0.003298182
0.003297352
0.003277993
0.002198124
0.002178429
0.001790568
0.001770723
0.001814937
0.001795105
0.002264169
0.002244485
0.00331194
0.003292569
0.003274926
0.003255543
0.002165162
0.002145437
0.001781497
0.00176163
0.001834718
0.001814822
0.002314886
0.002295168
0.003289796
0.003270367
0.00319812
0.003178665
0.002116246
0.002096449
0.001794308
0.001774361
0.00192769
0.001907799
0.00272936
0.00270973
0.004639979
0.004620786
0.005636088
0.005617042
0.005911222
0.005892187
0.005053752
0.005034591
0.003306578
0.003287068
0.002149617
0.002129777
0.001928657
0.001908742
0.002360822
0.002341097
0.003341969
0.00332253
0.003424192
0.003404771
0.002581845
0.002562191
0.00195987
0.001940003
0.001903623
0.001883791
0.002432756
0.002413114
0.003409928
0.003390561
0.003443906
0.003424544
0.002524577
0.002504959
0.001935253
0.001915451
0.001912477
0.001892668
0.002468082
0.002448471
0.003431304
0.003411962
0.003447021
0.00342768
0.002500727
0.002481122
0.00193002
0.001910217
0.001929965
0.001910165
0.002500621
0.002481021
0.003446787
0.00342745
0.003431563
0.003412208
0.002468387
0.00244876
0.001912768
0.001892947
0.001935251
0.001915441
0.002523898
0.002504295
0.003444078
0.003424699
0.003410591
0.003391201
0.002433634
0.002413966
0.001904105
0.00188425
0.001958955
0.001939125
0.002580707
0.002561093
0.003422685
0.003403302
0.003340528
0.003321122
0.002359724
0.002340032
0.001926813
0.001906967
0.002146366
0.002126634
0.003301998
0.0032826
0.005048132
0.005029079
0.005905642
0.005886705
0.006376592
0.006357709
0.005762943
0.005743991
0.004353359
0.004334183
0.002791979
0.002772452
0.002324322
0.002304659
0.002885223
0.002865738
0.00363649
0.003617191
0.003707696
0.00368841
0.003072353
0.003052917
0.002330751
0.002311097
0.002269183
0.002249511
0.002952702
0.002933228
0.003696848
0.003677553
0.003725692
0.0037064
0.003024645
0.003005185
0.002300001
0.002280325
0.002280265
0.002260554
0.002987609
0.002968114
0.003719612
0.003700292
0.003730121
0.0037108
0.003006524
0.002987028
0.002291952
0.002272243
0.002291861
0.002272155
0.003006318
0.002986828
0.003729889
0.00371057
0.003719602
0.003700279
0.002986813
0.002967343
0.002279337
0.002259655
0.002299673
0.00228
0.003024073
0.003004618
0.00372539
0.003706101
0.003696627
0.003677341
0.002952781
0.002933314
0.002269341
0.002249667
0.002330383
0.002310733
0.003071652
0.003052222
0.003706757
0.003687476
0.003635681
0.003616382
0.002884541
0.002865055
0.002323333
0.002303674
0.002789912
0.002770397
0.004350276
0.004331104
0.005759248
0.005740298
0.006372666
0.006353786
0.001647688
0.001593143
0.001540483
0.001490166
0.001442599
0.001398132
0.001357051
0.001319575
0.001285852
0.001255953
0.00122988
0.00120756
0.001188855
0.001173566
0.001161441
0.001152186
0.001145473
0.001140954
0.001138274
0.001137085
0.0009917924
0.0009350999
0.0008797518
0.0008265552
0.0007761929
0.0007292391
0.0006861641
0.0006473325
0.0006129954
0.0005832826
0.0005581971
0.0005376163
0.0005212989
0.0005088978
0.0004999773
0.0004940301
0.000490496
0.0004887786
0.00048826
0.0004883141
0.0005766211
0.0005179474
0.0004593081
0.0004014377
0.0003452468
0.0002917424
0.0002419261
0.0001966843
0.0001566862
0.0001223097
9.360922e-05
7.033104e-05
5.197051e-05
3.785627e-05
2.724257e-05
1.939189e-05
1.363607e-05
9.41171e-06
6.271949e-06
3.881044e-06
0.0005466542
0.0004884283
0.0004306986
0.0003741198
0.0003195161
0.0002678031
0.0002198912
0.000176583
0.0001384795
0.000105912
7.891263e-05
5.722735e-05
4.036688e-05
2.768251e-05
1.845038e-05
1.194868e-05
7.516569e-06
4.590389e-06
2.71796e-06
1.555668e-06
0.0005579261
0.0004997754
0.0004421135
0.0003855446
0.0003308343
0.0002788433
0.0002304427
0.0001864215
0.0001473974
0.0001137482
8.557361e-05
6.269687e-05
4.470183e-05
3.099616e-05
2.089162e-05
1.368063e-05
8.698218e-06
5.363592e-06
3.200529e-06
1.839871e-06
0.000586027
0.0005274784
0.000468885
0.0004109457
0.0003545427
0.0003006648
0.00025031
0.0002043769
0.0001635632
0.0001282884
9.865596e-05
7.446241e-05
5.524726e-05
4.037399e-05
2.911741e-05
2.074582e-05
1.458493e-05
1.005716e-05
6.69742e-06
4.150777e-06
0.001004821
0.0009492144
0.0008954892
0.0008441802
0.0007957383
0.0007505412
0.0007088974
0.0006710437
0.0006371407
0.0006072673
0.0005814179
0.0005595031
0.0005413558
0.0005267398
0.0005153615
0.0005068813
0.0005009252
0.0004970937
0.0004949691
0.0004941217
0.0009734047
0.0009176094
0.0008636172
0.0008119934
0.0007632157
0.0007176867
0.0006757373
0.0006376245
0.0006035257
0.0005735317
0.0005476434
0.0005257722
0.0005077452
0.0004933146
0.0004821698
0.00047395
0.0004682564
0.0004646628
0.000462724
0.0004619834
0.0005824373
0.0005239238
0.000465416
0.0004076125
0.000351391
0.0002977324
0.0002476243
0.0002019538
0.0001614077
0.0001263963
9.701646e-05
7.306009e-05
5.406436e-05
3.939005e-05
2.831078e-05
2.009542e-05
1.407162e-05
9.665192e-06
6.413753e-06
3.96456e-06
0.0005578947
0.0004998497
0.0004422806
0.0003857912
0.0003311461
0.0002792043
0.0002308355
0.0001868272
0.0001477969
0.0001141235
8.590964e-05
6.298272e-05
4.493167e-05
3.117099e-05
2.101788e-05
1.376781e-05
8.756403e-06
5.40101e-06
3.223553e-06
1.853198e-06
0.000557783
0.0004999086
0.0004425011
0.0003861577
0.0003316358
0.0002797876
0.0002314775
0.0001874913
0.000148448
0.0001147315
8.645228e-05
6.344668e-05
4.531254e-05
3.147186e-05
2.124721e-05
1.393637e-05
8.875087e-06
5.481067e-06
3.275227e-06
1.885008e-06
0.0005832432
0.0005248852
0.0004665045
0.000408796
0.0003526348
0.0002990006
0.0002488818
0.0002031682
0.000162551
0.0001274463
9.79577e-05
7.388415e-05
5.476923e-05
3.997918e-05
2.879167e-05
2.047874e-05
1.436991e-05
9.889945e-06
6.575027e-06
4.070836e-06
0.0009864062
0.0009308772
0.0008771873
0.0008258815
0.0007774202
0.0007321904
0.0006905096
0.0006526235
0.0006187006
0.0005888263
0.0005629995
0.0005411333
0.0005230601
0.0005085407
0.0004972759
0.0004889183
0.0004830839
0.000479362
0.0004773229
0.0004765247
0.0009772992
0.0009217159
0.0008679516
0.0008165599
0.000768009
0.0007226924
0.0006809338
0.0006429838
0.0006090151
0.0005791157
0.0005532859
0.0005314383
0.0005134034
0.0004989387
0.0004877403
0.0004794552
0.000473693
0.0004700361
0.0004680476
0.0004672785
0.0005819232
0.0005235725
0.0004652146
0.0004075454
0.0003514395
0.0002978753
0.0002478389
0.0002022172
0.0001616981
0.0001266942
9.730565e-05
7.332846e-05
5.430387e-05
3.959645e-05
2.848292e-05
2.023441e-05
1.418072e-05
9.74784e-06
6.473248e-06
4.003843e-06
0.0005570108
0.0004991964
0.0004418493
0.000385567
0.0003311069
0.0002793209
0.0002310729
0.0001871474
0.0001481622
0.0001144996
8.626851e-05
6.330452e-05
4.520494e-05
3.139189e-05
2.118852e-05
1.389415e-05
8.845598e-06
5.461046e-06
3.261977e-06
1.876407e-06
0.0005575246
0.0004997135
0.000442369
0.0003860864
0.0003316206
0.0002798214
0.0002315509
0.0001875932
0.0001485667
0.0001148557
8.657225e-05
6.355502e-05
4.540458e-05
3.154559e-05
2.130288e-05
1.397643e-05
8.902532e-06
5.498885e-06
3.286074e-06
1.891039e-06
0.0005822696
0.0005239765
0.0004656656
0.000408031
0.0003519462
0.0002983891
0.000248346
0.0002027046
0.0001621546
0.0001271109
9.767659e-05
7.36506e-05
5.457694e-05
3.982249e-05
2.866564e-05
2.037852e-05
1.429163e-05
9.830551e-06
6.532099e-06
4.042448e-06
0.000981581
0.0009260889
0.000872425
0.0008211367
0.0007726869
0.0007274649
0.0006857905
0.0006479113
0.0006139977
0.0005841363
0.0005583269
0.0005364828
0.0005184359
0.0005039465
0.0004927136
0.0004843884
0.0004785846
0.0004748894
0.0004728706
0.000472084
0.000978612
0.0009231003
0.0008694095
0.00081809
0.0007696067
0.0007243512
0.0006826449
0.0006447373
0.0006107998
0.0005809204
0.0005550995
0.0005332507
0.0005152059
0.0005007246
0.0004895049
0.0004811963
0.0004754109
0.0004717334
0.0004697292
0.0004689513
0.0005818549
0.0005235635
0.0004652584
0.000407634
0.0003515641
0.0002980264
0.0002480067
0.0002023924
0.000161872
0.0001268596
9.745706e-05
7.346236e-05
5.441854e-05
3.969177e-05
2.855993e-05
2.029492e-05
1.42271e-05
9.782348e-06
6.49787e-06
4.020238e-06
0.0005575907
0.0004997811
0.0004424381
0.0003861569
0.0003316921
0.0002798931
0.0002316219
0.0001876621
0.0001486318
0.0001149155
8.662518e-05
6.360016e-05
4.54415e-05
3.157446e-05
2.132435e-05
1.399156e-05
8.912694e-06
5.505344e-06
3.289897e-06
1.893064e-06
0.0005575931
0.0004997842
0.0004424419
0.0003861613
0.000331697
0.0002798985
0.0002316275
0.0001876676
0.0001486371
0.0001149203
8.662946e-05
6.36038e-05
4.544448e-05
3.15768e-05
2.132613e-05
1.399286e-05
8.913602e-06
5.505951e-06
3.290283e-06
1.893295e-06
0.0005818391
0.0005235505