/*--------------------------------*- C++ -*----------------------------------*\
| =========                 |                                                 |
| \\      /  F ield         | OpenFOAM: The Open Source CFD Toolbox           |
|  \\    /   O peration     | Version:  4.0                                   |
|   \\  /    A nd           | Web:      www.OpenFOAM.org                      |
|    \\/     M anipulation  |                                                 |
\*---------------------------------------------------------------------------*/
FoamFile
{
    version     2.0;
    format      ascii;
    class       volScalarField;
    location    "60/fuel";
    object      YCH3OHfuel;
}
// * * * * * * * * * * * * * * * * * * * * * * * * * * * * * * * * * * * * * //

dimensions      [0 0 0 0 0 0 0];

internalField   nonuniform List<scalar> 
39776
(
0.8975452
0.8975739
0.8984871
0.8985164
0.899083
0.8991129
0.899126
0.8991559
0.8991098
0.8991397
0.8990697
0.8990995
0.8984687
0.8984979
0.8985138
0.898543
0.8990748
0.8991047
0.8991101
0.8991399
0.8991105
0.8991402
0.899074
0.8991037
0.8984954
0.8985245
0.8985085
0.8985376
0.8990758
0.8991056
0.8991117
0.8991414
0.8991109
0.8991407
0.8990754
0.8991051
0.8985024
0.8985315
0.8985067
0.8985358
0.899076
0.8991057
0.8991109
0.8991406
0.8991109
0.8991406
0.8990761
0.8991057
0.8985066
0.8985357
0.8985014
0.8985305
0.8990747
0.8991044
0.8991102
0.89914
0.899111
0.8991408
0.8990758
0.8991055
0.898506
0.8985352
0.8984925
0.8985217
0.8990721
0.8991018
0.8991088
0.8991386
0.8991107
0.8991405
0.8990757
0.8991055
0.8985151
0.8985443
0.8984701
0.8984993
0.8990706
0.8991004
0.8991122
0.899142
0.8991306
0.8991604
0.8990879
0.8991176
0.8984955
0.8985246
0.8975589
0.8975875
0.897509
0.8975375
0.8983072
0.8983362
0.8988983
0.8989277
0.89896
0.8989896
0.8989414
0.8989709
0.8988639
0.8988934
0.8982414
0.8982703
0.8983012
0.8983302
0.8988773
0.8989067
0.8989427
0.8989722
0.8989403
0.8989698
0.8988688
0.8988982
0.8982657
0.8982947
0.8982889
0.8983178
0.898874
0.8989034
0.8989412
0.8989708
0.8989385
0.8989681
0.8988694
0.8988989
0.8982735
0.8983025
0.8982795
0.8983085
0.8988706
0.8989001
0.8989386
0.8989682
0.8989386
0.8989682
0.8988707
0.8989002
0.8982794
0.8983084
0.8982734
0.8983024
0.8988708
0.8989003
0.89894
0.8989695
0.8989411
0.8989707
0.8988739
0.8989034
0.8982881
0.898317
0.8982656
0.8982945
0.8988688
0.8988982
0.8989398
0.8989693
0.8989428
0.8989724
0.8988776
0.898907
0.8983018
0.8983307
0.8982421
0.898271
0.8988643
0.8988938
0.8989422
0.8989717
0.8989615
0.898991
0.8988995
0.8989289
0.8983098
0.8983388
0.8975145
0.897543
0.8972231
0.8972515
0.8980069
0.8980357
0.898699
0.8987284
0.898798
0.8988274
0.8987763
0.8988057
0.8986566
0.898686
0.897983
0.8980119
0.8980535
0.8980824
0.8986792
0.8987086
0.898781
0.8988104
0.8987766
0.898806
0.8986654
0.8986947
0.8980108
0.8980396
0.8980411
0.8980699
0.898676
0.8987053
0.8987809
0.8988103
0.8987788
0.8988081
0.898671
0.8987002
0.8980238
0.8980526
0.8980315
0.8980602
0.8986732
0.8987024
0.89878
0.8988093
0.89878
0.8988093
0.8986733
0.8987025
0.8980313
0.8980601
0.8980238
0.8980526
0.8986712
0.8987005
0.8987791
0.8988084
0.8987809
0.8988103
0.898676
0.8987052
0.8980405
0.8980693
0.8980103
0.8980391
0.898665
0.8986944
0.8987763
0.8988057
0.8987811
0.8988105
0.8986795
0.8987089
0.8980541
0.8980829
0.8979835
0.8980123
0.8986569
0.8986862
0.8987768
0.8988062
0.898799
0.8988284
0.8987004
0.8987297
0.8980097
0.8980385
0.8972276
0.897256
0.8968476
0.8968758
0.8976065
0.8976351
0.8984727
0.8985018
0.898639
0.8986682
0.8986188
0.8986479
0.8984355
0.8984645
0.8977171
0.8977457
0.8977702
0.8977988
0.8984758
0.8985049
0.8986273
0.8986565
0.89862
0.8986492
0.8984488
0.8984778
0.8977388
0.8977674
0.8977608
0.8977894
0.8984667
0.8984958
0.8986247
0.8986539
0.8986215
0.8986508
0.8984553
0.8984844
0.897746
0.8977747
0.8977517
0.8977804
0.8984591
0.8984882
0.8986214
0.8986507
0.8986214
0.8986507
0.8984591
0.8984883
0.8977517
0.8977804
0.8977459
0.8977746
0.8984537
0.8984828
0.89862
0.8986493
0.8986246
0.8986538
0.8984666
0.8984957
0.8977603
0.8977889
0.8977375
0.8977661
0.8984478
0.8984769
0.8986198
0.898649
0.8986274
0.8986566
0.898476
0.8985051
0.8977707
0.8977993
0.8977174
0.897746
0.8984357
0.8984647
0.8986191
0.8986483
0.8986398
0.898669
0.8984748
0.8985038
0.8976101
0.8976387
0.8968517
0.8968799
0.8964683
0.8964964
0.8972165
0.8972449
0.8982578
0.8982867
0.8984938
0.8985229
0.8984747
0.8985038
0.89824
0.898269
0.8974486
0.8974772
0.8974897
0.8975182
0.8982943
0.8983233
0.8984885
0.8985177
0.8984779
0.898507
0.8982561
0.8982851
0.897466
0.8974946
0.8974841
0.8975127
0.8982864
0.8983153
0.898488
0.8985171
0.8984839
0.898513
0.8982723
0.8983013
0.8974765
0.897505
0.8974809
0.8975094
0.898274
0.898303
0.8984841
0.8985132
0.8984842
0.8985132
0.8982741
0.898303
0.8974809
0.8975094
0.8974771
0.8975056
0.8982726
0.8983015
0.8984841
0.8985132
0.8984885
0.8985176
0.8982862
0.8983152
0.8974857
0.8975142
0.8974673
0.8974958
0.8982574
0.8982864
0.8984793
0.8985084
0.8984881
0.8985173
0.8982939
0.898323
0.8974893
0.8975179
0.897448
0.8974766
0.8982392
0.8982683
0.8984727
0.898502
0.8984906
0.8985198
0.8982552
0.8982843
0.8972147
0.8972432
0.8964669
0.8964951
0.896079
0.8961072
0.896835
0.8968634
0.89804
0.898069
0.8983548
0.898384
0.8983433
0.8983725
0.8980618
0.8980908
0.8971913
0.8972198
0.8972272
0.8972557
0.8981411
0.8981701
0.8983699
0.8983991
0.8983578
0.8983868
0.8980938
0.8981227
0.8972097
0.8972381
0.8972247
0.8972531
0.8981241
0.898153
0.8983683
0.8983974
0.8983642
0.8983933
0.8981116
0.8981405
0.8972196
0.897248
0.8972215
0.8972499
0.8981087
0.8981375
0.8983622
0.8983912
0.8983622
0.8983912
0.8981087
0.8981375
0.8972215
0.8972499
0.8972191
0.8972475
0.8981111
0.8981399
0.8983637
0.8983927
0.8983679
0.898397
0.898124
0.8981529
0.8972236
0.8972521
0.8972083
0.8972368
0.8980928
0.8981217
0.8983569
0.898386
0.8983706
0.8983997
0.898142
0.8981709
0.8972283
0.8972568
0.8971921
0.8972206
0.8980625
0.8980914
0.8983451
0.8983742
0.8983581
0.8983871
0.8980442
0.898073
0.8968407
0.896869
0.8960853
0.8961133
0.8956949
0.8957228
0.8964885
0.8965166
0.8978644
0.8978932
0.8982424
0.8982713
0.8982365
0.8982655
0.8979158
0.8979445
0.8969561
0.8969843
0.8970002
0.8970285
0.898011
0.8980398
0.8982727
0.8983017
0.8982575
0.8982864
0.8979601
0.8979888
0.8969716
0.8969999
0.8969836
0.8970119
0.8979841
0.8980129
0.8982648
0.8982937
0.8982599
0.8982889
0.8979719
0.8980008
0.8969779
0.8970063
0.8969787
0.8970071
0.8979704
0.8979993
0.8982577
0.8982867
0.8982577
0.8982867
0.8979704
0.8979993
0.8969788
0.8970072
0.8969778
0.8970062
0.8979732
0.898002
0.8982611
0.89829
0.8982647
0.8982937
0.8979839
0.8980127
0.8969833
0.8970116
0.8969717
0.897
0.8979605
0.8979892
0.8982573
0.8982863
0.898273
0.8983019
0.8980115
0.8980403
0.8970009
0.8970292
0.8969564
0.8969847
0.897916
0.8979447
0.8982372
0.8982661
0.8982437
0.8982726
0.8978662
0.8978949
0.8964916
0.8965198
0.8956989
0.8957268
0.8953152
0.895343
0.8961665
0.8961945
0.8977105
0.8977392
0.8981423
0.8981712
0.8981438
0.8981728
0.8977976
0.8978263
0.8967361
0.8967644
0.8967746
0.8968029
0.8978846
0.8979134
0.8981811
0.89821
0.8981664
0.8981954
0.8978377
0.8978665
0.8967541
0.8967823
0.896764
0.8967922
0.8978626
0.8978913
0.8981752
0.8982041
0.8981717
0.8982007
0.8978518
0.8978805
0.8967613
0.8967895
0.896762
0.8967903
0.8978544
0.8978831
0.8981712
0.8982
0.8981712
0.8982
0.8978543
0.897883
0.8967621
0.8967903
0.8967612
0.8967894
0.8978521
0.8978808
0.898172
0.8982009
0.8981751
0.898204
0.8978622
0.897891
0.8967638
0.896792
0.8967538
0.8967821
0.8978379
0.8978667
0.8981664
0.8981954
0.8981813
0.8982103
0.8978852
0.897914
0.8967753
0.8968036
0.8967364
0.8967646
0.8977974
0.8978262
0.8981442
0.8981732
0.8981432
0.8981722
0.8977124
0.8977411
0.89617
0.896198
0.8953191
0.8953469
0.8949492
0.8949769
0.8958707
0.8958986
0.8975774
0.897606
0.8980568
0.8980857
0.898066
0.8980948
0.8976981
0.8977268
0.896541
0.8965692
0.8965736
0.8966017
0.8977714
0.8978001
0.8981008
0.8981297
0.8980891
0.8981179
0.8977377
0.8977663
0.8965595
0.8965877
0.8965647
0.8965929
0.8977474
0.8977761
0.8980932
0.8981221
0.8980907
0.8981195
0.8977366
0.8977652
0.8965621
0.8965903
0.8965692
0.8965974
0.8977506
0.8977794
0.8980923
0.8981212
0.8980923
0.8981212
0.8977506
0.8977793
0.896569
0.8965973
0.8965619
0.8965901
0.8977354
0.8977641
0.8980894
0.8981183
0.898093
0.8981219
0.8977469
0.8977756
0.8965645
0.8965927
0.8965587
0.8965869
0.8977376
0.8977663
0.8980892
0.8981181
0.8981014
0.8981302
0.8977726
0.8978012
0.8965743
0.8966024
0.8965411
0.8965692
0.8976975
0.8977261
0.8980662
0.8980951
0.8980575
0.8980863
0.8975798
0.8976084
0.8958748
0.8959027
0.894953
0.8949807
0.8946007
0.8946283
0.8955967
0.8956246
0.8974547
0.8974833
0.8979776
0.8980064
0.8979927
0.8980216
0.897607
0.8976356
0.8963621
0.8963903
0.8963885
0.8964167
0.8976647
0.8976934
0.8980247
0.8980536
0.8980174
0.8980463
0.8976474
0.897676
0.8964013
0.8964294
0.8963846
0.8964128
0.8976295
0.8976582
0.8980143
0.8980431
0.8980149
0.8980437
0.8976311
0.8976597
0.8963859
0.896414
0.8963997
0.8964278
0.8976559
0.8976845
0.8980223
0.8980511
0.8980223
0.8980511
0.8976559
0.8976845
0.8963995
0.8964276
0.8963863
0.8964144
0.8976314
0.89766
0.8980151
0.8980439
0.8980146
0.8980434
0.8976289
0.8976576
0.8963861
0.8964142
0.8964031
0.8964312
0.8976489
0.8976776
0.8980188
0.8980476
0.8980247
0.8980536
0.8976651
0.8976938
0.8963884
0.8964165
0.8963613
0.8963894
0.8976055
0.8976342
0.8979909
0.8980198
0.8979748
0.8980037
0.8974527
0.8974814
0.8955956
0.8956236
0.8945995
0.8946273
0.8942653
0.894293
0.8953355
0.8953634
0.8973328
0.8973615
0.8978993
0.8979282
0.8979232
0.8979522
0.897522
0.8975507
0.896202
0.8962301
0.8962211
0.8962493
0.8975629
0.8975916
0.8979546
0.8979835
0.8979538
0.8979826
0.897567
0.8975956
0.8962693
0.8962974
0.896226
0.8962541
0.8975155
0.8975441
0.8979387
0.8979675
0.8979449
0.8979737
0.8975411
0.8975697
0.8962255
0.8962536
0.8962348
0.8962629
0.8975547
0.8975833
0.8979506
0.8979794
0.8979506
0.8979794
0.8975547
0.8975833
0.8962347
0.8962628
0.8962249
0.896253
0.8975406
0.8975692
0.8979444
0.8979732
0.8979382
0.897967
0.8975153
0.8975439
0.8962253
0.8962535
0.8962688
0.8962969
0.8975665
0.8975951
0.8979532
0.8979821
0.8979556
0.8979845
0.8975641
0.8975928
0.8962228
0.8962509
0.8962035
0.8962316
0.8975226
0.8975513
0.8979251
0.897954
0.8979026
0.8979314
0.8973371
0.8973656
0.8953416
0.8953694
0.8942718
0.8942993
0.8939567
0.8939842
0.8950967
0.8951245
0.8972203
0.8972488
0.8978311
0.8978599
0.8978639
0.8978927
0.8974447
0.8974733
0.8960624
0.8960904
0.8960752
0.8961032
0.8974727
0.8975013
0.8978936
0.8979223
0.897896
0.8979248
0.8974944
0.897523
0.896158
0.896186
0.8960862
0.8961142
0.8974124
0.8974409
0.8978677
0.8978965
0.8978805
0.8979093
0.8974621
0.8974907
0.8960887
0.8961168
0.896083
0.8961111
0.8974501
0.8974787
0.8978789
0.8979077
0.8978789
0.8979077
0.8974502
0.8974788
0.896083
0.896111
0.8960886
0.8961166
0.8974631
0.8974917
0.8978815
0.8979103
0.8978676
0.8978963
0.897412
0.8974406
0.8960864
0.8961144
0.896159
0.896187
0.897495
0.8975236
0.8978961
0.8979249
0.897894
0.8979227
0.8974736
0.8975021
0.8960763
0.8961043
0.8960631
0.8960911
0.8974447
0.8974733
0.8978645
0.8978932
0.8978326
0.8978613
0.8972222
0.8972507
0.8951002
0.8951279
0.893961
0.8939885
0.8936636
0.8936911
0.89487
0.8948977
0.8971109
0.8971394
0.8977638
0.8977925
0.8978048
0.8978336
0.8973727
0.8974013
0.8959482
0.8959762
0.8959415
0.8959695
0.8973789
0.8974075
0.8978304
0.8978592
0.8978388
0.8978676
0.8974235
0.8974521
0.8960507
0.8960787
0.8959612
0.8959892
0.8973245
0.897353
0.8978039
0.8978326
0.8978239
0.8978526
0.8973934
0.8974219
0.8959795
0.8960075
0.8959512
0.8959791
0.8973582
0.8973867
0.8978155
0.8978442
0.8978156
0.8978443
0.8973582
0.8973867
0.8959512
0.8959792
0.8959795
0.8960074
0.8973935
0.897422
0.8978241
0.8978528
0.8978038
0.8978325
0.8973242
0.8973527
0.8959615
0.8959895
0.8960514
0.8960794
0.8974238
0.8974524
0.8978389
0.8978677
0.8978308
0.8978596
0.8973797
0.8974083
0.8959424
0.8959705
0.8959488
0.8959768
0.8973727
0.8974013
0.8978052
0.897834
0.8977651
0.8977939
0.8971132
0.8971417
0.8948738
0.8949015
0.8936677
0.8936952
0.8933872
0.8934146
0.8946548
0.8946825
0.8970058
0.8970342
0.8977009
0.8977296
0.8977521
0.8977807
0.8973115
0.89734
0.8958615
0.8958894
0.895826
0.8958539
0.8972834
0.8973119
0.8977692
0.8977978
0.8977852
0.8978139
0.8973554
0.8973839
0.895938
0.895966
0.8958461
0.8958741
0.8972467
0.8972752
0.8977451
0.8977738
0.8977697
0.8977984
0.8973266
0.8973551
0.895878
0.8959061
0.8958304
0.8958584
0.8972694
0.8972979
0.8977526
0.8977813
0.8977527
0.8977814
0.8972695
0.897298
0.8958305
0.8958585
0.8958779
0.8959059
0.8973253
0.8973538
0.8977685
0.8977972
0.8977449
0.8977736
0.8972464
0.8972749
0.8958464
0.8958744
0.8959381
0.8959661
0.8973551
0.8973836
0.8977853
0.897814
0.8977696
0.8977983
0.8972846
0.897313
0.8958267
0.8958546
0.8958608
0.8958888
0.8973111
0.8973396
0.8977523
0.897781
0.897702
0.8977307
0.8970083
0.8970367
0.8946591
0.8946867
0.8933911
0.8934185
0.8931268
0.8931542
0.8944562
0.8944838
0.8969142
0.8969426
0.8976412
0.8976699
0.8977009
0.8977296
0.8972561
0.8972846
0.8957954
0.8958234
0.8957224
0.8957504
0.897191
0.8972195
0.8977048
0.8977335
0.8977293
0.897758
0.8972863
0.8973148
0.8958236
0.8958516
0.8957376
0.8957655
0.8971805
0.897209
0.8976915
0.8977201
0.8977182
0.8977469
0.8972646
0.8972931
0.8957899
0.8958179
0.8957257
0.8957536
0.8971914
0.8972198
0.8976947
0.8977233
0.8976948
0.8977234
0.8971916
0.89722
0.8957259
0.8957538
0.8957902
0.8958182
0.8972645
0.897293
0.8977183
0.8977469
0.8976917
0.8977204
0.8971802
0.8972086
0.8957392
0.8957672
0.8958254
0.8958534
0.8972874
0.8973159
0.8977304
0.8977591
0.8977045
0.8977332
0.8971913
0.8972198
0.8957217
0.8957497
0.8957932
0.8958212
0.8972545
0.8972831
0.8976989
0.8977277
0.8976388
0.8976675
0.8969127
0.8969412
0.8944556
0.8944833
0.8931259
0.8931534
0.8928755
0.8929029
0.8942581
0.8942858
0.8968085
0.8968369
0.8975766
0.8976053
0.8976484
0.8976772
0.8972038
0.8972324
0.8957394
0.8957675
0.8956301
0.8956581
0.8970952
0.8971237
0.8976387
0.8976674
0.8976741
0.8977028
0.897219
0.8972475
0.895712
0.89574
0.8956363
0.8956642
0.8971117
0.8971402
0.8976368
0.8976654
0.8976655
0.8976941
0.8972013
0.8972298
0.8956962
0.8957241
0.8956259
0.8956538
0.8971109
0.8971393
0.8976337
0.8976623
0.8976338
0.8976624
0.897111
0.8971394
0.8956261
0.895654
0.8956958
0.8957238
0.8972007
0.8972291
0.8976649
0.8976936
0.8976363
0.897665
0.8971118
0.8971403
0.895636
0.895664
0.8957118
0.8957398
0.8972185
0.897247
0.8976737
0.8977024
0.8976401
0.8976688
0.8970972
0.8971257
0.8956316
0.8956595
0.8957399
0.8957679
0.8972044
0.8972329
0.8976503
0.8976791
0.8975803
0.8976089
0.8968134
0.8968417
0.8942648
0.8942924
0.8928823
0.8929097
0.8926438
0.8926711
0.8940716
0.8940991
0.896704
0.8967323
0.897518
0.8975466
0.8976038
0.8976324
0.897159
0.8971875
0.8956903
0.8957182
0.8955517
0.8955796
0.897009
0.8970374
0.8975799
0.8976085
0.897623
0.8976517
0.8971568
0.8971852
0.8956185
0.8956464
0.8955419
0.8955698
0.8970404
0.8970688
0.8975821
0.8976107
0.8976126
0.8976413
0.8971354
0.8971639
0.8955885
0.8956165
0.895528
0.895556
0.8970438
0.8970722
0.8975776
0.8976063
0.8975777
0.8976063
0.8970439
0.8970723
0.8955283
0.8955562
0.8955887
0.8956167
0.8971363
0.8971648
0.8976136
0.8976422
0.8975821
0.8976107
0.8970406
0.897069
0.8955423
0.8955702
0.8956193
0.8956472
0.8971572
0.8971856
0.8976231
0.8976518
0.8975806
0.8976092
0.8970101
0.8970384
0.8955525
0.8955804
0.8956903
0.8957182
0.897159
0.8971874
0.8976044
0.8976331
0.8975197
0.8975483
0.8967064
0.8967347
0.8940756
0.8941031
0.8926485
0.8926758
0.8924147
0.892442
0.8938697
0.8938972
0.8965602
0.8965885
0.8974436
0.8974722
0.8975512
0.8975799
0.8971056
0.897134
0.8956263
0.8956542
0.8954711
0.8954991
0.8969106
0.896939
0.8975134
0.897542
0.897568
0.8975967
0.8970892
0.8971177
0.8955195
0.8955474
0.8954482
0.8954761
0.8969582
0.8969866
0.8975238
0.8975524
0.8975579
0.8975865
0.8970597
0.8970881
0.8954818
0.8955096
0.8954353
0.8954632
0.896977
0.8970054
0.897525
0.8975536
0.8975251
0.8975536
0.8969771
0.8970054
0.8954356
0.8954635
0.8954819
0.8955098
0.8970599
0.8970883
0.8975581
0.8975867
0.8975239
0.8975525
0.8969586
0.896987
0.8954486
0.8954765
0.8955195
0.8955474
0.8970892
0.8971176
0.8975681
0.8975967
0.8975139
0.8975425
0.8969114
0.8969398
0.8954719
0.8954998
0.8956265
0.8956545
0.8971055
0.897134
0.8975517
0.8975804
0.897445
0.8974736
0.8965627
0.896591
0.8938739
0.8939014
0.8924192
0.8924465
0.8921736
0.8922008
0.8936146
0.8936421
0.8963211
0.8963493
0.8973405
0.897369
0.8974901
0.8975187
0.8970376
0.897066
0.8955108
0.8955386
0.8953781
0.8954059
0.8967949
0.8968232
0.8974397
0.8974682
0.8975048
0.8975334
0.8969919
0.8970203
0.8954087
0.8954365
0.8953479
0.8953757
0.8968528
0.8968811
0.8974567
0.8974853
0.8974923
0.8975209
0.896952
0.8969804
0.8953718
0.8953997
0.8953351
0.8953629
0.8968769
0.8969052
0.8974593
0.897488
0.8974594
0.897488
0.8968769
0.8969053
0.8953353
0.8953632
0.8953718
0.8953997
0.8969509
0.8969793
0.8974912
0.8975198
0.8974568
0.8974854
0.8968533
0.8968816
0.8953482
0.895376
0.895408
0.8954358
0.8969912
0.8970196
0.8975048
0.8975333
0.8974401
0.8974686
0.8967955
0.8968238
0.8953788
0.8954066
0.8955112
0.8955391
0.8970376
0.897066
0.8974906
0.8975191
0.8973419
0.8973704
0.8963242
0.8963524
0.8936193
0.8936467
0.8921779
0.8922051
0.8919019
0.8919291
0.8933301
0.8933575
0.8960742
0.8961023
0.8972279
0.8972564
0.8974195
0.8974481
0.8969559
0.8969843
0.8954005
0.8954284
0.8952688
0.8952967
0.8966699
0.8966982
0.8973603
0.8973889
0.8974353
0.8974639
0.896884
0.8969124
0.8952886
0.8953165
0.8952349
0.8952627
0.8967416
0.8967699
0.8973873
0.8974159
0.8974228
0.8974514
0.8968367
0.896865
0.8952568
0.8952846
0.895228
0.8952558
0.8967739
0.8968022
0.8973939
0.8974224
0.8973939
0.8974224
0.896774
0.8968023
0.8952283
0.8952561
0.8952573
0.8952851
0.896837
0.8968653
0.897423
0.8974515
0.8973879
0.8974165
0.896742
0.8967703
0.8952363
0.8952642
0.8952895
0.8953173
0.8968843
0.8969127
0.897436
0.8974646
0.8973595
0.8973881
0.8966691
0.8966974
0.8952681
0.895296
0.8953998
0.8954278
0.8969547
0.8969831
0.8974176
0.8974463
0.8972258
0.8972544
0.8960734
0.8961016
0.8933297
0.8933573
0.891901
0.8919283
0.8915066
0.8915339
0.8927361
0.8927636
0.895244
0.8952721
0.8969067
0.8969352
0.8972244
0.897253
0.8966031
0.8966314
0.8951932
0.8952211
0.8950751
0.895103
0.8962854
0.8963136
0.8971795
0.8972081
0.8972604
0.8972889
0.8964997
0.8965279
0.8950956
0.8951234
0.8950468
0.8950746
0.8963677
0.8963959
0.8972149
0.8972434
0.8972477
0.8972762
0.8964489
0.8964771
0.8950649
0.8950927
0.8950423
0.8950701
0.8964019
0.8964301
0.8972224
0.8972509
0.8972225
0.897251
0.8964021
0.8964303
0.8950426
0.8950704
0.8950645
0.8950923
0.8964484
0.8964766
0.8972473
0.8972758
0.8972149
0.8972434
0.8963686
0.8963968
0.8950465
0.8950744
0.8950946
0.8951225
0.8964984
0.8965267
0.8972597
0.8972883
0.8971808
0.8972094
0.896287
0.8963152
0.8950773
0.8951051
0.8951953
0.8952231
0.8966046
0.8966329
0.8972271
0.8972556
0.8969114
0.8969397
0.8952506
0.8952785
0.8927442
0.8927715
0.8915146
0.8915417
0.8908396
0.8908667
0.8917191
0.8917463
0.893741
0.8937686
0.8959834
0.8960114
0.8966555
0.8966838
0.8958494
0.8958774
0.8947702
0.8947979
0.8946679
0.8946956
0.8955805
0.8956084
0.8966463
0.8966745
0.8967348
0.8967631
0.8957524
0.8957804
0.8946835
0.8947112
0.8946421
0.8946698
0.895649
0.895677
0.8966905
0.8967188
0.8967189
0.8967472
0.8957023
0.8957303
0.8946508
0.8946786
0.8946357
0.8946635
0.8956751
0.8957031
0.8967021
0.8967304
0.8967022
0.8967305
0.8956754
0.8957034
0.8946361
0.8946638
0.8946509
0.8946786
0.8957034
0.8957314
0.8967202
0.8967485
0.896691
0.8967192
0.8956499
0.8956778
0.8946425
0.8946702
0.8946838
0.8947115
0.8957523
0.8957803
0.8967346
0.8967628
0.8966468
0.8966751
0.8955815
0.8956094
0.8946693
0.894697
0.8947714
0.8947991
0.8958504
0.8958784
0.8966569
0.8966852
0.8959863
0.8960144
0.8937455
0.893773
0.8917244
0.8917516
0.8908453
0.8908723
0.8976285
0.8977069
0.8977827
0.8978551
0.8979235
0.8979875
0.8980466
0.8981005
0.898149
0.898192
0.8982295
0.8982617
0.8982886
0.8983106
0.898328
0.8983413
0.898351
0.8983575
0.8983614
0.8983631
0.8985721
0.8986537
0.8987334
0.8988099
0.8988824
0.89895
0.899012
0.8990679
0.8991174
0.8991601
0.8991962
0.8992259
0.8992494
0.8992672
0.8992801
0.8992886
0.8992937
0.8992962
0.8992969
0.8992968
0.8991697
0.8992542
0.8993386
0.8994219
0.8995028
0.8995799
0.8996516
0.8997167
0.8997743
0.8998239
0.8998652
0.8998987
0.8999252
0.8999455
0.8999608
0.8999721
0.8999804
0.8999864
0.899991
0.8999944
0.8992129
0.8992967
0.8993798
0.8994613
0.8995399
0.8996143
0.8996833
0.8997457
0.8998006
0.8998475
0.8998863
0.8999176
0.8999419
0.8999601
0.8999734
0.8999828
0.8999892
0.8999934
0.8999961
0.8999978
0.8991966
0.8992803
0.8993634
0.8994448
0.8995236
0.8995984
0.8996681
0.8997315
0.8997877
0.8998362
0.8998768
0.8999097
0.8999356
0.8999554
0.8999699
0.8999803
0.8999875
0.8999923
0.8999954
0.8999974
0.8991562
0.8992405
0.8993248
0.8994082
0.8994894
0.899567
0.8996395
0.8997057
0.8997644
0.8998152
0.8998579
0.8998928
0.8999204
0.8999419
0.8999581
0.8999701
0.899979
0.8999855
0.8999904
0.899994
0.8985534
0.8986334
0.8987107
0.8987846
0.8988543
0.8989194
0.8989793
0.8990338
0.8990826
0.8991256
0.8991628
0.8991944
0.8992205
0.8992415
0.8992579
0.8992701
0.8992787
0.8992842
0.8992873
0.8992885
0.8985986
0.8986789
0.8987566
0.8988309
0.8989011
0.8989666
0.899027
0.8990819
0.899131
0.8991742
0.8992114
0.8992429
0.8992689
0.8992896
0.8993057
0.8993175
0.8993257
0.8993309
0.8993337
0.8993347
0.8991613
0.8992456
0.8993298
0.899413
0.899494
0.8995712
0.8996434
0.8997092
0.8997675
0.899818
0.8998603
0.8998948
0.8999221
0.8999433
0.8999592
0.8999711
0.8999797
0.8999861
0.8999908
0.8999943
0.8991967
0.8992802
0.8993631
0.8994444
0.8995231
0.8995979
0.8996676
0.8997309
0.8997871
0.8998356
0.8998763
0.8999093
0.8999353
0.8999551
0.8999697
0.8999802
0.8999874
0.8999922
0.8999954
0.8999973
0.8991968
0.8992802
0.8993628
0.8994439
0.8995224
0.8995971
0.8996666
0.89973
0.8997862
0.8998348
0.8998755
0.8999086
0.8999347
0.8999547
0.8999694
0.8999799
0.8999872
0.8999921
0.8999953
0.8999973
0.8991602
0.8992442
0.8993282
0.8994113
0.8994922
0.8995694
0.8996416
0.8997074
0.8997659
0.8998165
0.8998589
0.8998936
0.8999211
0.8999424
0.8999585
0.8999705
0.8999793
0.8999858
0.8999905
0.8999941
0.8985799
0.8986598
0.8987371
0.8988109
0.8988807
0.8989458
0.8990058
0.8990603
0.8991091
0.8991521
0.8991893
0.8992208
0.8992468
0.8992677
0.8992839
0.899296
0.8993044
0.8993097
0.8993127
0.8993138
0.898593
0.898673
0.8987504
0.8988243
0.8988942
0.8989594
0.8990196
0.8990742
0.8991231
0.8991661
0.8992033
0.8992348
0.8992607
0.8992815
0.8992977
0.8993096
0.8993179
0.8993232
0.899326
0.8993271
0.8991621
0.8992461
0.8993301
0.8994131
0.8994939
0.899571
0.8996431
0.8997088
0.8997671
0.8998175
0.8998599
0.8998944
0.8999218
0.899943
0.899959
0.8999709
0.8999796
0.899986
0.8999907
0.8999942
0.8991979
0.8992812
0.8993637
0.8994448
0.8995232
0.8995978
0.8996672
0.8997305
0.8997866
0.8998351
0.8998758
0.8999088
0.8999349
0.8999548
0.8999695
0.89998
0.8999873
0.8999921
0.8999953
0.8999973
0.8991972
0.8992804
0.899363
0.899444
0.8995224
0.899597
0.8996665
0.8997298
0.899786
0.8998346
0.8998753
0.8999085
0.8999346
0.8999546
0.8999693
0.8999799
0.8999872
0.8999921
0.8999953
0.8999973
0.8991616
0.8992455
0.8993294
0.8994124
0.8994932
0.8995703
0.8996424
0.8997081
0.8997665
0.8998169
0.8998593
0.8998939
0.8999214
0.8999426
0.8999587
0.8999707
0.8999794
0.8999858
0.8999906
0.8999942
0.8985868
0.8986667
0.8987439
0.8988177
0.8988875
0.8989526
0.8990126
0.8990671
0.8991159
0.8991589
0.899196
0.8992275
0.8992535
0.8992743
0.8992905
0.8993025
0.8993108
0.8993162
0.8993191
0.8993202
0.8985911
0.898671
0.8987483
0.8988221
0.8988919
0.8989571
0.8990171
0.8990717
0.8991205
0.8991635
0.8992007
0.8992322
0.8992581
0.899279
0.8992951
0.8993071
0.8993154
0.8993207
0.8993236
0.8993247
0.8991622
0.8992461
0.89933
0.899413
0.8994937
0.8995708
0.8996428
0.8997085
0.8997669
0.8998173
0.8998596
0.8998942
0.8999216
0.8999428
0.8999589
0.8999708
0.8999795
0.8999859
0.8999906
0.8999942
0.8991971
0.8992803
0.8993629
0.8994439
0.8995223
0.8995969
0.8996664
0.8997297
0.8997859
0.8998345
0.8998752
0.8999084
0.8999346
0.8999545
0.8999693
0.8999798
0.8999872
0.8999921
0.8999953
0.8999973
0.8991971
0.8992803
0.8993629
0.8994439
0.8995223
0.8995969
0.8996664
0.8997297
0.8997859
0.8998345
0.8998752
0.8999084
0.8999345
0.8999545
0.8999693
0.8999798
0.8999872
0.8999921
0.8999953
0.8999973
0.8991622
0.8992461
0.8993301
0.899413
0.8994937
0.8995708
0.8996428
0.8997085
0.8997669
0.8998173
0.8998596
0.8998942
0.8999216
0.8999428
0.8999589
0.8999708
0.8999795
0.8999859
0.8999906
0.8999942
0.898591
0.8986709
0.8987482
0.898822
0.8988918
0.8989569
0.899017
0.8990715
0.8991204
0.8991634
0.8992006
0.899232
0.899258
0.8992788
0.899295
0.8993069
0.8993153
0.8993206
0.8993235
0.8993246
0.8985859
0.8986658
0.8987431
0.898817
0.8988868
0.8989519
0.899012
0.8990665
0.8991154
0.8991584
0.8991956
0.8992271
0.8992531
0.8992739
0.8992901
0.8993021
0.8993105
0.8993158
0.8993187
0.8993199
0.8991609
0.8992449
0.8993289
0.899412
0.8994928
0.89957
0.8996421
0.8997079
0.8997663
0.8998168
0.8998592
0.8998939
0.8999213
0.8999426
0.8999587
0.8999706
0.8999794
0.8999858
0.8999906
0.8999942
0.8991965
0.8992798
0.8993625
0.8994436
0.8995221
0.8995967
0.8996663
0.8997296
0.8997859
0.8998345
0.8998752
0.8999084
0.8999346
0.8999545
0.8999693
0.8999799
0.8999872
0.8999921
0.8999953
0.8999973
0.8991973
0.8992806
0.8993633
0.8994444
0.8995228
0.8995975
0.899667
0.8997303
0.8997865
0.899835
0.8998757
0.8999088
0.8999348
0.8999548
0.8999695
0.89998
0.8999873
0.8999921
0.8999953
0.8999973
0.899162
0.899246
0.89933
0.899413
0.8994938
0.8995709
0.899643
0.8997087
0.8997671
0.8998175
0.8998598
0.8998943
0.8999217
0.8999429
0.8999589
0.8999708
0.8999796
0.8999859
0.8999907
0.8999942
0.8985907
0.8986708
0.8987484
0.8988225
0.8988925
0.8989578
0.899018
0.8990728
0.8991217
0.8991648
0.8992021
0.8992336
0.8992596
0.8992804
0.8992966
0.8993085
0.8993168
0.8993221
0.899325
0.8993261
0.8985772
0.8986572
0.8987347
0.8988087
0.8988786
0.8989438
0.8990039
0.8990586
0.8991075
0.8991506
0.8991878
0.8992194
0.8992455
0.8992664
0.8992827
0.8992947
0.8993031
0.8993085
0.8993114
0.8993126
0.8991585
0.8992427
0.8993269
0.8994101
0.8994912
0.8995686
0.8996409
0.8997068
0.8997654
0.8998161
0.8998586
0.8998934
0.899921
0.8999423
0.8999585
0.8999705
0.8999793
0.8999857
0.8999905
0.8999941
0.8991953
0.8992788
0.8993616
0.8994429
0.8995216
0.8995963
0.899666
0.8997295
0.8997858
0.8998345
0.8998753
0.8999085
0.8999346
0.8999546
0.8999693
0.8999799
0.8999872
0.8999921
0.8999953
0.8999973
0.8991972
0.8992807
0.8993635
0.8994448
0.8995234
0.8995982
0.8996678
0.8997311
0.8997873
0.8998357
0.8998763
0.8999093
0.8999353
0.8999551
0.8999697
0.8999802
0.8999874
0.8999922
0.8999954
0.8999973
0.8991621
0.8992462
0.8993304
0.8994135
0.8994944
0.8995716
0.8996437
0.8997094
0.8997677
0.8998181
0.8998604
0.8998949
0.8999222
0.8999433
0.8999593
0.8999711
0.8999797
0.8999861
0.8999908
0.8999943
0.8985998
0.8986801
0.8987577
0.8988319
0.8989021
0.8989675
0.8990279
0.8990827
0.8991317
0.8991749
0.8992121
0.8992436
0.8992695
0.8992902
0.8993063
0.8993181
0.8993263
0.8993314
0.8993342
0.8993353
0.8985547
0.8986347
0.8987119
0.8987857
0.8988554
0.8989204
0.8989803
0.8990347
0.8990835
0.8991264
0.8991636
0.8991952
0.8992213
0.8992423
0.8992587
0.8992709
0.8992795
0.899285
0.8992881
0.8992893
0.899157
0.8992412
0.8993255
0.8994088
0.89949
0.8995675
0.8996399
0.899706
0.8997647
0.8998154
0.8998581
0.8998929
0.8999205
0.8999419
0.8999581
0.8999702
0.899979
0.8999855
0.8999904
0.899994
0.8991987
0.8992822
0.899365
0.8994462
0.8995247
0.8995994
0.8996689
0.8997321
0.8997882
0.8998365
0.899877
0.8999099
0.8999357
0.8999554
0.89997
0.8999803
0.8999875
0.8999923
0.8999954
0.8999974
0.899217
0.8993004
0.8993831
0.8994641
0.8995424
0.8996164
0.8996851
0.8997471
0.8998017
0.8998483
0.899887
0.8999181
0.8999422
0.8999604
0.8999736
0.8999829
0.8999892
0.8999934
0.8999961
0.8999978
0.8991741
0.8992581
0.8993421
0.899425
0.8995054
0.8995821
0.8996534
0.8997182
0.8997755
0.8998247
0.8998659
0.8998992
0.8999255
0.8999457
0.899961
0.8999722
0.8999805
0.8999865
0.899991
0.8999944
0.89858
0.8986611
0.8987403
0.8988164
0.8988884
0.8989556
0.8990173
0.8990729
0.899122
0.8991645
0.8992004
0.8992299
0.8992532
0.8992709
0.8992837
0.8992922
0.8992972
0.8992997
0.8993004
0.8993003
0.8976417
0.8977197
0.897795
0.8978669
0.8979349
0.8979985
0.8980573
0.8981109
0.8981591
0.8982018
0.8982391
0.898271
0.8982978
0.8983197
0.898337
0.8983502
0.8983598
0.8983663
0.8983701
0.8983718
0.8975917
0.8976699
0.8977456
0.8978182
0.8978871
0.8979519
0.8980122
0.8980676
0.8981178
0.8981628
0.8982023
0.8982365
0.8982655
0.8982893
0.8983084
0.898323
0.8983336
0.8983406
0.8983447
0.8983464
0.8983913
0.8984721
0.8985516
0.8986287
0.8987027
0.8987727
0.8988381
0.8988984
0.898953
0.8990018
0.8990446
0.8990813
0.899112
0.8991371
0.8991568
0.8991716
0.899182
0.8991887
0.8991924
0.8991938
0.8989838
0.8990668
0.8991493
0.8992306
0.8993097
0.8993859
0.8994582
0.8995261
0.8995889
0.8996463
0.8996979
0.8997437
0.899784
0.8998191
0.8998494
0.8998755
0.8998981
0.8999177
0.8999352
0.8999511
0.8990457
0.8991282
0.8992096
0.8992894
0.8993666
0.8994406
0.8995106
0.899576
0.8996363
0.8996911
0.8997402
0.8997835
0.8998214
0.8998539
0.8998816
0.899905
0.8999247
0.8999412
0.8999551
0.899967
0.899027
0.8991094
0.8991908
0.8992704
0.8993477
0.8994218
0.8994922
0.8995581
0.8996192
0.8996749
0.8997251
0.8997698
0.8998089
0.8998429
0.899872
0.8998967
0.8999176
0.8999353
0.8999502
0.8999631
0.8989493
0.8990322
0.8991147
0.899196
0.8992753
0.8993518
0.8994247
0.8994935
0.8995574
0.8996162
0.8996695
0.8997173
0.8997597
0.8997969
0.8998294
0.8998576
0.8998824
0.8999042
0.8999238
0.899942
0.8983252
0.8984046
0.8984817
0.8985558
0.8986265
0.8986932
0.8987555
0.898813