/*--------------------------------*- C++ -*----------------------------------*\
| =========                 |                                                 |
| \\      /  F ield         | OpenFOAM: The Open Source CFD Toolbox           |
|  \\    /   O peration     | Version:  4.0                                   |
|   \\  /    A nd           | Web:      www.OpenFOAM.org                      |
|    \\/     M anipulation  |                                                 |
\*---------------------------------------------------------------------------*/
FoamFile
{
    version     2.0;
    format      ascii;
    class       volScalarField;
    location    "60/fuel";
    object      YCH3OHfuel;
}
// * * * * * * * * * * * * * * * * * * * * * * * * * * * * * * * * * * * * * //

dimensions      [0 0 0 0 0 0 0];

internalField   nonuniform List<scalar> 
39776
(
0.8996403
0.8996544
0.8996179
0.899632
0.8995836
0.8995976
0.8995729
0.8995869
0.8995908
0.8996048
0.8996017
0.8996157
0.8996409
0.8996551
0.8996434
0.8996575
0.899611
0.8996251
0.8996513
0.8996654
0.8996539
0.8996681
0.8996345
0.8996486
0.8996632
0.8996773
0.8996586
0.8996727
0.8996265
0.8996406
0.8996626
0.8996767
0.8996593
0.8996734
0.8996337
0.8996478
0.8996637
0.8996779
0.8996607
0.8996749
0.8996296
0.8996437
0.8996602
0.8996744
0.8996602
0.8996744
0.8996296
0.8996436
0.8996607
0.8996748
0.8996638
0.899678
0.8996339
0.899648
0.8996594
0.8996736
0.8996626
0.8996767
0.8996266
0.8996407
0.8996586
0.8996727
0.8996629
0.8996771
0.8996342
0.8996483
0.8996538
0.8996679
0.8996512
0.8996653
0.899611
0.899625
0.8996435
0.8996576
0.8996411
0.8996552
0.8996018
0.8996159
0.8995909
0.8996049
0.8995728
0.8995868
0.8995837
0.8995977
0.899618
0.8996321
0.8996403
0.8996544
0.899674
0.8996881
0.8997351
0.8997494
0.8997815
0.8997959
0.8997908
0.8998052
0.8997825
0.8997969
0.8997857
0.8998001
0.8997181
0.8997324
0.8997461
0.8997604
0.899801
0.8998155
0.8998093
0.8998237
0.8998105
0.899825
0.8998048
0.8998192
0.899745
0.8997593
0.8997467
0.899761
0.8998042
0.8998186
0.8998115
0.899826
0.8998115
0.899826
0.8998056
0.8998201
0.8997478
0.8997621
0.8997459
0.8997602
0.8998042
0.8998187
0.8998117
0.8998262
0.8998116
0.8998261
0.8998042
0.8998186
0.8997459
0.8997602
0.8997478
0.8997621
0.8998057
0.8998202
0.8998117
0.8998261
0.8998116
0.8998261
0.8998042
0.8998186
0.8997467
0.899761
0.8997449
0.8997592
0.8998046
0.8998191
0.8998103
0.8998248
0.8998092
0.8998236
0.8998009
0.8998154
0.899746
0.8997603
0.8997182
0.8997325
0.8997857
0.8998001
0.8997825
0.8997969
0.8997907
0.8998051
0.8997814
0.8997958
0.899735
0.8997493
0.8996739
0.8996881
0.8997045
0.8997187
0.8997544
0.8997687
0.8997939
0.8998083
0.8997814
0.8997958
0.8997564
0.8997708
0.8997695
0.8997838
0.8997171
0.8997314
0.8997452
0.8997595
0.8997909
0.8998053
0.8997835
0.8997979
0.8997809
0.8997953
0.8997908
0.8998053
0.8997397
0.899754
0.8997397
0.899754
0.8997903
0.8998047
0.8997834
0.8997978
0.8997823
0.8997966
0.8997921
0.8998065
0.8997418
0.8997561
0.8997397
0.8997539
0.8997904
0.8998048
0.8997829
0.8997973
0.8997829
0.8997973
0.8997904
0.8998048
0.8997396
0.8997539
0.8997418
0.8997561
0.8997922
0.8998066
0.8997824
0.8997967
0.8997835
0.8997979
0.8997901
0.8998045
0.8997395
0.8997538
0.8997398
0.8997541
0.8997907
0.8998052
0.8997808
0.8997952
0.8997835
0.8997979
0.8997909
0.8998053
0.8997451
0.8997594
0.8997172
0.8997314
0.8997696
0.8997839
0.8997564
0.8997707
0.8997813
0.8997957
0.8997939
0.8998083
0.8997544
0.8997687
0.8997044
0.8997186
0.8997076
0.8997218
0.8997431
0.8997574
0.8997851
0.8997995
0.8997668
0.8997812
0.8997306
0.8997449
0.8997514
0.8997658
0.8996955
0.8997097
0.8997252
0.8997395
0.8997728
0.8997871
0.8997588
0.8997731
0.8997545
0.8997689
0.899771
0.8997853
0.8997149
0.8997291
0.899723
0.8997373
0.8997722
0.8997866
0.8997573
0.8997717
0.899756
0.8997703
0.8997728
0.8997872
0.8997196
0.8997338
0.8997208
0.899735
0.8997718
0.8997861
0.8997562
0.8997705
0.8997562
0.8997705
0.8997717
0.899786
0.8997207
0.8997349
0.8997197
0.899734
0.8997729
0.8997873
0.8997561
0.8997704
0.8997573
0.8997717
0.8997721
0.8997864
0.8997228
0.8997371
0.8997149
0.8997291
0.8997709
0.8997852
0.8997545
0.8997688
0.8997587
0.8997731
0.8997728
0.8997872
0.8997252
0.8997395
0.8996956
0.8997098
0.8997516
0.8997659
0.8997306
0.8997449
0.8997668
0.8997811
0.8997851
0.8997995
0.8997431
0.8997574
0.8997076
0.8997218
0.8996858
0.8997
0.8997293
0.8997435
0.8997691
0.8997835
0.8997478
0.8997621
0.899708
0.8997222
0.8997277
0.8997419
0.8996779
0.8996921
0.8997063
0.8997205
0.8997515
0.8997659
0.8997357
0.89975
0.8997311
0.8997453
0.8997455
0.8997598
0.8996967
0.8997109
0.8997066
0.8997208
0.8997506
0.8997649
0.8997339
0.8997481
0.8997326
0.8997468
0.8997486
0.8997629
0.8997005
0.8997148
0.8997038
0.8997181
0.8997495
0.8997638
0.8997327
0.899747
0.8997327
0.899747
0.8997494
0.8997637
0.8997037
0.899718
0.8997007
0.8997149
0.8997487
0.899763
0.8997327
0.899747
0.8997338
0.8997481
0.8997504
0.8997647
0.8997064
0.8997206
0.8996967
0.8997109
0.8997455
0.8997598
0.899731
0.8997452
0.8997357
0.89975
0.8997516
0.899766
0.8997064
0.8997206
0.899678
0.8996922
0.8997277
0.899742
0.8997079
0.8997222
0.8997478
0.8997621
0.8997691
0.8997835
0.8997293
0.8997435
0.8996858
0.8996999
0.8996681
0.8996823
0.8997151
0.8997293
0.8997501
0.8997645
0.8997298
0.8997441
0.899688
0.8997022
0.8997086
0.8997228
0.8996561
0.8996702
0.8996893
0.8997035
0.899732
0.8997463
0.8997156
0.8997298
0.8997097
0.899724
0.8997245
0.8997387
0.8996766
0.8996907
0.8996887
0.8997029
0.8997308
0.899745
0.8997131
0.8997273
0.8997114
0.8997257
0.8997281
0.8997423
0.8996809
0.8996951
0.8996852
0.8996994
0.8997297
0.8997439
0.8997118
0.8997261
0.8997118
0.899726
0.8997296
0.8997439
0.8996851
0.8996993
0.899681
0.8996951
0.8997281
0.8997424
0.8997115
0.8997258
0.899713
0.8997272
0.8997306
0.8997448
0.8996884
0.8997026
0.8996766
0.8996908
0.8997245
0.8997388
0.8997097
0.8997239
0.8997156
0.8997298
0.8997322
0.8997464
0.8996895
0.8997037
0.8996563
0.8996704
0.8997086
0.8997228
0.8996879
0.8997021
0.8997298
0.8997441
0.8997502
0.8997645
0.8997151
0.8997294
0.8996682
0.8996823
0.8996505
0.8996646
0.8997014
0.8997156
0.8997318
0.899746
0.899713
0.8997273
0.8996701
0.8996843
0.8996895
0.8997036
0.8996369
0.899651
0.8996746
0.8996888
0.8997133
0.8997275
0.8996973
0.8997115
0.8996899
0.8997041
0.8997052
0.8997194
0.8996574
0.8996716
0.8996702
0.8996843
0.8997116
0.8997258
0.899694
0.8997082
0.8996921
0.8997063
0.8997094
0.8997236
0.8996628
0.8996769
0.899666
0.8996802
0.8997101
0.8997243
0.8996928
0.899707
0.8996927
0.8997069
0.89971
0.8997242
0.899666
0.8996802
0.8996628
0.8996769
0.8997095
0.8997237
0.8996922
0.8997064
0.899694
0.8997082
0.8997113
0.8997256
0.89967
0.8996842
0.8996575
0.8996716
0.8997052
0.8997195
0.8996899
0.8997041
0.8996973
0.8997115
0.8997134
0.8997276
0.8996749
0.899689
0.8996371
0.8996512
0.8996894
0.8997036
0.8996701
0.8996842
0.899713
0.8997272
0.8997318
0.899746
0.8997014
0.8997156
0.8996505
0.8996646
0.8996331
0.8996472
0.8996887
0.8997029
0.8997137
0.8997279
0.8996968
0.899711
0.8996549
0.899669
0.8996714
0.8996856
0.8996192
0.8996332
0.89966
0.8996742
0.8996956
0.8997098
0.8996803
0.8996945
0.8996718
0.899686
0.8996886
0.8997028
0.8996394
0.8996535
0.899651
0.8996651
0.8996936
0.8997078
0.8996765
0.8996907
0.8996747
0.8996888
0.8996935
0.8997077
0.8996465
0.8996606
0.8996467
0.8996609
0.8996911
0.8997053
0.8996754
0.8996895
0.8996753
0.8996895
0.8996911
0.8997053
0.8996468
0.8996609
0.8996465
0.8996606
0.8996936
0.8997078
0.8996747
0.8996889
0.8996765
0.8996907
0.8996935
0.8997077
0.8996509
0.899665
0.8996393
0.8996534
0.8996886
0.8997028
0.8996718
0.8996859
0.8996803
0.8996945
0.8996958
0.89971
0.8996602
0.8996744
0.8996193
0.8996334
0.8996714
0.8996855
0.8996548
0.8996689
0.8996968
0.899711
0.8997137
0.899728
0.8996888
0.899703
0.8996331
0.8996472
0.8996156
0.8996297
0.899676
0.8996902
0.8996965
0.8997107
0.8996808
0.899695
0.8996409
0.8996551
0.8996549
0.899669
0.899603
0.8996171
0.8996448
0.8996589
0.899679
0.8996932
0.899664
0.8996782
0.8996556
0.8996697
0.8996737
0.8996879
0.8996237
0.8996377
0.8996328
0.8996469
0.8996767
0.8996909
0.8996603
0.8996745
0.8996588
0.8996729
0.899679
0.8996932
0.8996307
0.8996448
0.8996286
0.8996427
0.8996744
0.8996885
0.8996595
0.8996736
0.8996594
0.8996736
0.8996743
0.8996884
0.8996286
0.8996427
0.8996307
0.8996448
0.8996791
0.8996933
0.8996588
0.899673
0.8996603
0.8996745
0.8996767
0.8996908
0.8996327
0.8996468
0.8996235
0.8996376
0.8996736
0.8996878
0.8996555
0.8996696
0.899664
0.8996782
0.8996792
0.8996933
0.8996448
0.8996589
0.8996032
0.8996173
0.8996549
0.899669
0.8996408
0.8996549
0.8996808
0.899695
0.8996965
0.8997107
0.899676
0.8996902
0.8996157
0.8996297
0.8995982
0.8996123
0.8996622
0.8996763
0.8996797
0.8996939
0.8996652
0.8996794
0.8996282
0.8996423
0.8996393
0.8996534
0.8995882
0.8996023
0.8996302
0.8996443
0.8996642
0.8996784
0.8996485
0.8996627
0.8996408
0.8996549
0.8996599
0.8996741
0.8996091
0.8996232
0.8996162
0.8996303
0.8996612
0.8996753
0.8996452
0.8996593
0.8996443
0.8996584
0.8996653
0.8996794
0.899615
0.8996291
0.8996126
0.8996267
0.8996597
0.8996739
0.8996448
0.8996589
0.8996448
0.8996589
0.8996597
0.8996738
0.8996127
0.8996267
0.899615
0.8996291
0.8996654
0.8996796
0.8996444
0.8996585
0.8996452
0.8996593
0.8996611
0.8996753
0.8996162
0.8996303
0.899609
0.8996231
0.8996599
0.899674
0.8996408
0.8996549
0.8996485
0.8996626
0.8996644
0.8996785
0.8996302
0.8996443
0.8995884
0.8996024
0.8996392
0.8996533
0.899628
0.8996421
0.8996651
0.8996793
0.8996797
0.8996938
0.8996622
0.8996764
0.8995983
0.8996123
0.8995814
0.8995954
0.8996461
0.8996603
0.8996633
0.8996775
0.8996501
0.8996642
0.8996165
0.8996306
0.8996247
0.8996388
0.8995748
0.8995888
0.8996157
0.8996297
0.8996515
0.8996656
0.8996341
0.8996482
0.8996273
0.8996414
0.8996464
0.8996605
0.899595
0.8996091
0.8996022
0.8996163
0.8996476
0.8996617
0.8996311
0.8996452
0.8996307
0.8996448
0.8996519
0.8996661
0.8996001
0.8996142
0.8995987
0.8996127
0.8996462
0.8996603
0.8996309
0.899645
0.8996309
0.899645
0.8996462
0.8996603
0.8995988
0.8996128
0.8996001
0.8996141
0.8996521
0.8996662
0.8996308
0.8996449
0.8996311
0.8996452
0.8996475
0.8996616
0.8996022
0.8996162
0.899595
0.899609
0.8996464
0.8996605
0.8996272
0.8996413
0.8996342
0.8996483
0.8996519
0.899666
0.8996159
0.89963
0.8995749
0.899589
0.8996246
0.8996387
0.8996164
0.8996305
0.8996501
0.8996643
0.8996634
0.8996775
0.8996463
0.8996604
0.8995815
0.8995955
0.8995652
0.8995792
0.899629
0.8996431
0.8996477
0.8996618
0.8996356
0.8996497
0.8996055
0.8996196
0.8996119
0.8996259
0.8995636
0.8995776
0.8996
0.8996141
0.899639
0.8996531
0.899621
0.899635
0.8996145
0.8996286
0.8996324
0.8996465
0.8995818
0.8995958
0.899589
0.899603
0.8996351
0.8996492
0.8996178
0.8996318
0.8996168
0.8996309
0.8996372
0.8996513
0.8995854
0.8995994
0.8995862
0.8996002
0.8996335
0.8996476
0.8996174
0.8996315
0.8996175
0.8996315
0.8996334
0.8996475
0.8995863
0.8996003
0.8995853
0.8995994
0.8996374
0.8996515
0.899617
0.8996311
0.8996178
0.8996318
0.8996349
0.899649
0.8995889
0.8996029
0.8995817
0.8995957
0.8996325
0.8996466
0.8996144
0.8996285
0.899621
0.8996351
0.8996396
0.8996537
0.8996005
0.8996146
0.8995634
0.8995774
0.8996116
0.8996257
0.8996054
0.8996195
0.8996356
0.8996497
0.8996478
0.8996619
0.8996291
0.8996432
0.8995653
0.8995793
0.8995498
0.8995638
0.899612
0.8996261
0.899633
0.8996471
0.8996213
0.8996354
0.8995947
0.8996087
0.8996021
0.8996162
0.8995558
0.8995698
0.8995827
0.8995967
0.8996222
0.8996363
0.8996075
0.8996215
0.8996025
0.8996166
0.8996195
0.8996335
0.8995711
0.8995851
0.8995752
0.8995892
0.8996195
0.8996335
0.8996043
0.8996183
0.8996025
0.8996165
0.8996192
0.8996333
0.8995718
0.8995858
0.8995751
0.8995891
0.8996215
0.8996355
0.8996045
0.8996185
0.8996045
0.8996185
0.8996214
0.8996354
0.8995751
0.8995891
0.8995717
0.8995857
0.8996194
0.8996334
0.8996027
0.8996167
0.8996043
0.8996183
0.8996194
0.8996335
0.8995751
0.8995891
0.8995708
0.8995849
0.8996194
0.8996335
0.8996024
0.8996164
0.8996075
0.8996216
0.8996228
0.8996369
0.8995831
0.8995971
0.8995556
0.8995696
0.8996019
0.899616
0.8995946
0.8996086
0.8996213
0.8996354
0.899633
0.8996471
0.899612
0.8996261
0.8995499
0.8995638
0.8995356
0.8995496
0.8995961
0.8996102
0.8996191
0.8996332
0.8996069
0.899621
0.8995842
0.8995982
0.8995962
0.8996102
0.8995527
0.8995667
0.8995663
0.8995803
0.8996009
0.899615
0.8995927
0.8996067
0.8995922
0.8996062
0.8996112
0.8996253
0.8995651
0.8995791
0.8995615
0.8995755
0.8995979
0.8996119
0.8995895
0.8996035
0.8995884
0.8996024
0.8996001
0.8996141
0.8995583
0.8995723
0.899565
0.8995791
0.8996101
0.8996242
0.8995921
0.8996061
0.899592
0.899606
0.8996099
0.899624
0.8995649
0.8995789
0.8995583
0.8995723
0.8996002
0.8996142
0.8995884
0.8996025
0.8995896
0.8996036
0.8995981
0.8996122
0.8995614
0.8995754
0.8995645
0.8995785
0.8996109
0.8996249
0.8995919
0.899606
0.8995928
0.8996068
0.8996014
0.8996155
0.8995666
0.8995806
0.8995525
0.8995665
0.8995959
0.89961
0.8995841
0.8995981
0.8996069
0.899621
0.8996191
0.8996332
0.8995962
0.8996102
0.8995357
0.8995497
0.8995214
0.8995354
0.8995797
0.8995938
0.8996033
0.8996174
0.8995913
0.8996054
0.8995739
0.8995879
0.8995895
0.8996035
0.899549
0.899563
0.8995521
0.8995661
0.8995784
0.8995924
0.8995771
0.8995911
0.8995836
0.8995977
0.8996085
0.8996225
0.8995639
0.8995779
0.8995497
0.8995637
0.8995743
0.8995883
0.8995743
0.8995883
0.8995751
0.8995892
0.8995826
0.8995966
0.899545
0.899559
0.899554
0.899568
0.8995987
0.8996128
0.8995801
0.8995942
0.89958
0.899594
0.8995984
0.8996125
0.8995539
0.8995679
0.899545
0.899559
0.8995827
0.8995967
0.8995752
0.8995892
0.8995744
0.8995884
0.8995748
0.8995888
0.8995494
0.8995634
0.899563
0.899577
0.899608
0.899622
0.8995834
0.8995974
0.8995772
0.8995912
0.8995788
0.8995928
0.8995523
0.8995663
0.8995488
0.8995627
0.8995892
0.8996033
0.8995737
0.8995877
0.8995912
0.8996053
0.8996033
0.8996173
0.8995797
0.8995937
0.8995214
0.8995354
0.8995071
0.899521
0.8995618
0.8995758
0.8995849
0.899599
0.899576
0.89959
0.8995633
0.8995773
0.8995787
0.8995928
0.8995393
0.8995532
0.8995385
0.8995524
0.8995587
0.8995727
0.8995632
0.8995772
0.8995762
0.8995902
0.8996053
0.8996194
0.8995593
0.8995733
0.8995376
0.8995516
0.8995544
0.8995684
0.8995609
0.8995749
0.8995636
0.8995776
0.8995682
0.8995822
0.8995316
0.8995455
0.8995414
0.8995554
0.8995865
0.8996005
0.899569
0.899583
0.8995688
0.8995828
0.899586
0.8996001
0.8995412
0.8995552
0.8995316
0.8995456
0.8995683
0.8995823
0.8995636
0.8995776
0.899561
0.899575
0.8995548
0.8995688
0.8995373
0.8995512
0.8995584
0.8995724
0.8996047
0.8996188
0.8995759
0.8995899
0.8995632
0.8995772
0.8995591
0.8995731
0.8995387
0.8995526
0.899539
0.899553
0.8995785
0.8995925
0.8995632
0.8995772
0.899576
0.89959
0.899585
0.899599
0.8995619
0.8995759
0.8995072
0.8995211
0.8994929
0.8995068
0.8995425
0.8995565
0.8995645
0.8995785
0.8995607
0.8995747
0.8995505
0.8995645
0.8995633
0.8995773
0.8995264
0.8995404
0.8995251
0.899539
0.8995412
0.8995552
0.8995486
0.8995625
0.8995649
0.8995789
0.8995913
0.8996054
0.8995451
0.8995591
0.899523
0.899537
0.89954
0.899554
0.8995482
0.8995622
0.8995509
0.8995649
0.8995549
0.8995689
0.8995195
0.8995335
0.8995276
0.8995416
0.8995713
0.8995853
0.899557
0.899571
0.8995567
0.8995707
0.899571
0.899585
0.8995275
0.8995414
0.8995195
0.8995334
0.8995549
0.8995689
0.8995509
0.8995649
0.8995483
0.8995623
0.8995405
0.8995544
0.8995227
0.8995367
0.8995442
0.8995582
0.8995907
0.8996048
0.8995646
0.8995786
0.8995486
0.8995626
0.8995415
0.8995555
0.8995253
0.8995392
0.8995262
0.8995401
0.899563
0.899577
0.8995504
0.8995643
0.8995607
0.8995747
0.8995645
0.8995785
0.8995426
0.8995566
0.899493
0.8995069
0.8994773
0.8994912
0.8995224
0.8995364
0.8995441
0.899558
0.8995456
0.8995596
0.8995372
0.8995511
0.8995443
0.8995582
0.899512
0.8995259
0.8995106
0.8995245
0.8995256
0.8995395
0.8995345
0.8995485
0.8995499
0.8995638
0.8995651
0.8995791
0.8995273
0.8995412
0.8995111
0.899525
0.8995292
0.8995432
0.8995362
0.8995502
0.899538
0.899552
0.899541
0.8995549
0.8995069
0.8995209
0.899513
0.899527
0.899554
0.899568
0.8995445
0.8995584
0.8995442
0.8995582
0.8995539
0.8995679
0.899513
0.8995269
0.8995068
0.8995207
0.8995409
0.8995549
0.899538
0.8995519
0.8995364
0.8995503
0.8995297
0.8995436
0.8995109
0.8995248
0.8995265
0.8995404
0.8995646
0.8995786
0.8995496
0.8995636
0.8995345
0.8995485
0.8995257
0.8995397
0.8995108
0.8995247
0.8995117
0.8995257
0.8995439
0.8995579
0.8995369
0.8995509
0.8995456
0.8995596
0.8995442
0.8995582
0.8995225
0.8995365
0.8994774
0.8994913
0.8994609
0.8994748
0.8995038
0.8995178
0.8995204
0.8995344
0.8995262
0.8995402
0.8995194
0.8995334
0.8995223
0.8995363
0.8994975
0.8995115
0.8994961
0.89951
0.8995069
0.8995209
0.8995166
0.8995305
0.8995285
0.8995424
0.8995328
0.8995467
0.899511
0.8995249
0.8995039
0.8995178
0.8995175
0.8995314
0.8995208
0.8995347
0.8995203
0.8995342
0.8995224
0.8995363
0.899496
0.8995099
0.8994995
0.8995134
0.89953
0.899544
0.8995266
0.8995406
0.8995264
0.8995404
0.89953
0.899544
0.8994994
0.8995134
0.8994957
0.8995096
0.8995222
0.8995362
0.8995202
0.8995342
0.899521
0.8995349
0.8995179
0.8995318
0.8995036
0.8995175
0.8995102
0.8995242
0.8995322
0.8995462
0.8995282
0.8995422
0.8995165
0.8995305
0.8995072
0.8995211
0.8994962
0.8995101
0.8994973
0.8995112
0.8995217
0.8995357
0.8995193
0.8995333
0.8995264
0.8995403
0.8995206
0.8995346
0.8995039
0.8995179
0.899461
0.8994749
0.8994423
0.8994562
0.8994783
0.8994922
0.8994914
0.8995053
0.899502
0.8995159
0.8994966
0.8995105
0.8994946
0.8995085
0.8994795
0.8994934
0.8994796
0.8994935
0.8994837
0.8994976
0.8994942
0.8995081
0.8995006
0.8995145
0.8994975
0.8995115
0.8994934
0.8995073
0.8994903
0.8995042
0.8994988
0.8995127
0.899502
0.8995159
0.8994995
0.8995134
0.8994993
0.8995132
0.8994808
0.8994947
0.899482
0.8994959
0.8994984
0.8995123
0.8995024
0.8995163
0.8995024
0.8995163
0.8994984
0.8995124
0.8994819
0.8994958
0.8994803
0.8994942
0.899499
0.8995129
0.8994994
0.8995133
0.8995023
0.8995162
0.8994995
0.8995134
0.8994903
0.8995042
0.8994929
0.8995068
0.8994972
0.8995111
0.8995001
0.899514
0.8994948
0.8995087
0.8994843
0.8994982
0.8994796
0.8994935
0.8994792
0.8994931
0.8994939
0.8995078
0.8994966
0.8995105
0.8995019
0.8995158
0.8994913
0.8995053
0.8994784
0.8994923
0.8994424
0.8994562
0.8994223
0.8994362
0.8994553
0.8994691
0.8994587
0.8994725
0.8994709
0.8994848
0.8994678
0.8994817
0.8994588
0.8994727
0.8994663
0.8994802
0.899471
0.8994849
0.8994613
0.8994752
0.8994681
0.899482
0.8994677
0.8994816
0.8994595
0.8994733
0.8994806
0.8994945
0.8994829
0.8994968
0.899476
0.8994899
0.8994768
0.8994907
0.8994743
0.8994881
0.8994741
0.899488
0.8994732
0.8994871
0.8994688
0.8994827
0.8994619
0.8994758
0.8994706
0.8994845
0.8994708
0.8994847
0.8994623
0.8994762
0.8994685
0.8994824
0.8994724
0.8994863
0.8994733
0.8994872
0.8994739
0.8994878
0.8994768
0.8994907
0.8994766
0.8994905
0.8994829
0.8994968
0.8994799
0.8994938
0.899459
0.8994729
0.8994677
0.8994816
0.8994692
0.8994831
0.8994622
0.8994761
0.8994709
0.8994848
0.899466
0.8994799
0.899458
0.8994719
0.8994678
0.8994817
0.8994708
0.8994847
0.8994583
0.8994722
0.8994553
0.8994691
0.8994224
0.8994362
0.8994086
0.8994224
0.8994165
0.8994303
0.8993914
0.8994052
0.8993955
0.8994093
0.899395
0.8994088
0.8994141
0.8994279
0.8994606
0.8994745
0.8994598
0.8994737
0.8994166
0.8994304
0.8994008
0.8994146
0.8993935
0.8994074
0.8994199
0.8994337
0.8994745
0.8994884
0.8994698
0.8994837
0.899426
0.8994398
0.8994092
0.8994231
0.8994069
0.8994207
0.8994192
0.8994331
0.8994636
0.8994775
0.8994605
0.8994743
0.8994165
0.8994304
0.8993991
0.8994129
0.8993997
0.8994135
0.8994166
0.8994304
0.89946
0.8994739
0.8994627
0.8994766
0.8994183
0.8994322
0.8994063
0.8994201
0.8994095
0.8994233
0.8994263
0.8994402
0.8994698
0.8994837
0.899474
0.8994879
0.8994194
0.8994332
0.8993939
0.8994078
0.8994019
0.8994157
0.899417
0.8994308
0.8994597
0.8994736
0.8994604
0.8994742
0.8994136
0.8994274
0.8993948
0.8994087
0.8993953
0.8994091
0.8993911
0.8994049
0.8994165
0.8994303
0.8994086
0.8994224
0.8996813
0.8997196
0.8997554
0.8997877
0.8998161
0.8998407
0.8998618
0.8998799
0.8998952
0.8999082
0.8999191
0.8999282
0.8999357
0.8999418
0.8999469
0.8999508
0.8999537
0.8999555
0.8999563
0.8999566
0.8996588
0.8996965
0.8997314
0.899763
0.8997915
0.8998172
0.8998402
0.8998607
0.8998789
0.8998948
0.8999083
0.8999196
0.8999287
0.8999358
0.8999412
0.8999453
0.8999481
0.8999498
0.8999507
0.899951
0.8996242
0.8996599
0.8996916
0.899722
0.8997516
0.8997809
0.8998104
0.8998403
0.899871
0.899901
0.8999265
0.8999472
0.8999631
0.8999752
0.899984
0.8999901
0.8999941
0.8999968
0.8999985
0.8999995
0.8996135
0.8996494
0.8996822
0.8997154
0.8997503
0.8997876
0.8998279
0.8998686
0.8999066
0.899939
0.8999638
0.8999804
0.8999903
0.8999956
0.8999982
0.8999993
0.8999997
0.8999999
0.9
0.9
0.8996315
0.8996682
0.8997034
0.8997399
0.8997787
0.8998201
0.899862
0.8999018
0.8999367
0.8999639
0.8999822
0.8999925
0.8999973
0.8999992
0.8999998
0.8999999
0.9
0.9
0.9
0.9
0.8996424
0.8996781
0.89971
0.8997413
0.8997748
0.8998112
0.8998506
0.8998905
0.8999255
0.8999531
0.8999721
0.8999837
0.8999901
0.8999935
0.8999956
0.8999969
0.8999979
0.8999987
0.8999993
0.8999997
0.8996819
0.8997186
0.8997508
0.8997782
0.8998012
0.8998207
0.8998372
0.8998513
0.8998634
0.899874
0.8998831
0.8998909
0.8998976
0.8999033
0.8999082
0.8999124
0.899916
0.8999188
0.8999206
0.8999214
0.8996843
0.8997207
0.8997522
0.8997787
0.8998009
0.8998196
0.8998355
0.899849
0.8998604
0.89987
0.899878
0.8998846
0.89989
0.8998945
0.8998984
0.8999019
0.8999049
0.8999074
0.8999091
0.8999098
0.8996518
0.8996863
0.8997153
0.8997418
0.8997702
0.8998015
0.8998363
0.8998738
0.8999074
0.8999348
0.8999551
0.8999695
0.8999791
0.8999856
0.89999
0.8999932
0.8999955
0.8999973
0.8999986
0.8999995
0.8996922
0.8997292
0.8997643
0.8998006
0.8998387
0.8998763
0.8999115
0.8999417
0.8999651
0.8999809
0.8999904
0.8999955
0.899998
0.8999991
0.8999996
0.8999998
0.8999999
0.9
0.9
0.9
0.8996949
0.8997316
0.8997659
0.8998015
0.899839
0.8998776
0.8999139
0.8999452
0.8999689
0.8999843
0.8999929
0.8999971
0.8999988
0.8999995
0.8999998
0.8999999
0.9
0.9
0.9
0.9
0.8996754
0.8997104
0.8997402
0.8997676
0.8997968
0.8998291
0.8998649
0.8999014
0.8999326
0.8999561
0.899972
0.899982
0.8999879
0.8999916
0.899994
0.8999958
0.8999971
0.8999982
0.899999
0.8999996
0.8997042
0.8997408
0.8997725
0.8997991
0.8998214
0.8998399
0.8998556
0.8998688
0.8998799
0.8998894
0.8998973
0.899904
0.8999095
0.8999141
0.899918
0.8999214
0.8999243
0.8999267
0.8999283
0.899929
0.8996995
0.8997361
0.8997677
0.8997943
0.8998166
0.8998353
0.8998511
0.8998645
0.8998759
0.8998854
0.8998935
0.8999003
0.8999061
0.8999109
0.8999152
0.899919
0.8999222
0.8999248
0.8999265
0.8999272
0.8996673
0.8997021
0.8997318
0.8997592
0.8997888
0.8998215
0.8998576
0.8998944
0.8999261
0.8999504
0.8999674
0.8999785
0.8999856
0.8999901
0.8999931
0.8999952
0.8999968
0.899998
0.899999
0.8999996
0.8997036
0.8997407
0.8997762
0.8998127
0.8998508
0.8998881
0.8999222
0.8999507
0.8999718
0.8999854
0.8999931
0.899997
0.8999987
0.8999994
0.8999998
0.8999999
0.9
0.9
0.9
0.9
0.8997003
0.8997372
0.8997718
0.8998078
0.8998456
0.8998836
0.8999189
0.8999488
0.8999711
0.8999854
0.8999934
0.8999972
0.8999988
0.8999995
0.8999998
0.8999999
0.9
0.9
0.9
0.9
0.8996746
0.8997095
0.8997392
0.8997664
0.8997953
0.8998274
0.8998629
0.8998995
0.8999309
0.8999547
0.8999709
0.8999811
0.8999873
0.8999912
0.8999938
0.8999956
0.8999971
0.8999982
0.899999
0.8999996
0.8997047
0.8997413
0.8997729
0.8997995
0.8998217
0.8998403
0.8998559
0.8998691
0.8998803
0.8998897
0.8998976
0.8999042
0.8999097
0.8999143
0.8999183
0.8999218
0.8999248
0.8999273
0.8999289
0.8999295
0.8997017
0.8997383
0.89977
0.8997966
0.8998188
0.8998375
0.8998532
0.8998665
0.8998777
0.8998871
0.8998949
0.8999014
0.8999068
0.8999114
0.8999153
0.8999187
0.8999218
0.8999243
0.899926
0.8999267
0.8996704
0.8997053
0.8997351
0.8997626
0.8997921
0.8998248
0.8998608
0.8998975
0.8999289
0.8999528
0.8999694
0.89998
0.8999866
0.8999907
0.8999934
0.8999953
0.8999968
0.899998
0.899999
0.8999996
0.8997013
0.8997382
0.8997732
0.8998095
0.8998476
0.8998855
0.8999205
0.89995
0.8999717
0.8999857
0.8999934
0.8999972
0.8999988
0.8999995
0.8999998
0.8999999
0.9
0.9
0.9
0.9
0.8997012
0.8997382
0.8997732
0.8998094
0.8998476
0.8998855
0.8999205
0.8999499
0.8999717
0.8999856
0.8999934
0.8999972
0.8999988
0.8999995
0.8999998
0.8999999
0.9
0.9
0.9
0.9
0.8996704
0.8997053
0.8997351
0.8997625
0.899792
0.8998246
0.8998606
0.8998973
0.8999287
0.8999526
0.8999692
0.8999799
0.8999865
0.8999907
0.8999934
0.8999953
0.8999968
0.899998
0.8999989
0.8999996
0.8997017
0.8997383
0.8997699
0.8997965
0.8998188
0.8998374
0.8998532
0.8998664
0.8998776
0.899887
0.8998949
0.8999014
0.8999068
0.8999114
0.8999153
0.8999188
0.8999218
0.8999243
0.899926
0.8999267
0.8997048
0.8997414
0.899773
0.8997996
0.8998218
0.8998404
0.899856
0.8998692
0.8998804
0.8998898
0.8998977
0.8999043
0.8999098
0.8999144
0.8999184
0.8999219
0.899925
0.8999274
0.899929
0.8999297
0.8996747
0.8997096
0.8997393
0.8997665
0.8997954
0.8998274
0.8998629
0.8998995
0.8999309
0.8999546
0.8999709
0.8999811
0.8999874
0.8999912
0.8999938
0.8999956
0.8999971
0.8999982
0.899999
0.8999996
0.8997004
0.8997373
0.8997719
0.8998079
0.8998457
0.8998836
0.899919
0.8999489
0.8999711
0.8999854
0.8999934
0.8999972
0.8999988
0.8999995
0.8999998
0.8999999
0.9
0.9
0.9
0.9
0.8997036
0.8997407
0.8997761
0.8998127
0.8998508
0.8998881
0.8999222
0.8999508
0.8999719
0.8999855
0.8999932
0.899997
0.8999987
0.8999994
0.8999998
0.8999999
0.9
0.9
0.9
0.9
0.8996674
0.8997022
0.8997319
0.8997593
0.899789
0.8998217
0.8998578
0.8998947
0.8999263
0.8999505
0.8999675
0.8999786
0.8999856
0.8999901
0.8999931
0.8999952
0.8999968
0.899998
0.899999
0.8999996
0.8996996
0.8997361
0.8997678
0.8997944
0.8998167
0.8998354
0.8998512
0.8998646
0.8998759
0.8998855
0.8998936
0.8999004
0.8999061
0.899911
0.8999153
0.8999191
0.8999224
0.899925
0.8999267
0.8999274
0.8997039
0.8997405
0.8997722
0.8997989
0.8998211
0.8998396
0.8998552
0.8998684
0.8998796
0.899889
0.899897
0.8999036
0.8999091
0.8999137
0.8999176
0.8999209
0.8999239
0.8999263
0.8999279
0.8999285
0.8996751
0.8997101
0.89974
0.8997673
0.8997966
0.8998289
0.8998647
0.8999013
0.8999325
0.899956
0.899972
0.8999819
0.8999879
0.8999915
0.899994
0.8999957
0.8999971
0.8999982
0.899999
0.8999996
0.8996947
0.8997315
0.8997658
0.8998014
0.8998389
0.8998775
0.8999138
0.8999451
0.8999688
0.8999843
0.8999929
0.8999971
0.8999988
0.8999995
0.8999998
0.8999999
0.9
0.9
0.9
0.9
0.8996922
0.8997292
0.8997643
0.8998007
0.8998388
0.8998765
0.8999116
0.8999418
0.8999651
0.8999809
0.8999904
0.8999955
0.899998
0.8999991
0.8999996
0.8999998
0.8999999
0.9
0.9
0.9
0.8996517
0.8996863
0.8997153
0.8997418
0.8997703
0.8998016
0.8998363
0.8998737
0.8999074
0.8999347
0.8999551
0.8999694
0.8999791
0.8999856
0.89999
0.8999932
0.8999955
0.8999973
0.8999986
0.8999995
0.8996844
0.8997208
0.8997523
0.8997789
0.8998011
0.8998198
0.8998357
0.8998493
0.8998607
0.8998703
0.8998784
0.899885
0.8998904
0.8998949
0.8998988
0.8999023
0.8999054
0.8999078
0.8999095
0.8999102
0.899682
0.8997188
0.899751
0.8997784
0.8998014
0.8998208
0.8998373
0.8998515
0.8998636
0.8998741
0.8998832
0.899891
0.8998977
0.8999034
0.8999083
0.8999125
0.8999161
0.8999189
0.8999208
0.8999215
0.8996425
0.8996782
0.8997102
0.8997415
0.899775
0.8998114
0.8998508
0.8998906
0.8999256
0.8999531
0.8999722
0.8999837
0.8999901
0.8999936
0.8999956
0.8999969
0.8999979
0.8999987
0.8999993
0.8999997
0.8996316
0.8996684
0.8997035
0.8997401
0.8997788
0.8998202
0.8998621
0.8999019
0.8999367
0.8999639
0.8999822
0.8999925
0.8999973
0.8999992
0.8999998
0.8999999
0.9
0.9
0.9
0.9
0.8996134
0.8996493
0.8996821
0.8997152
0.8997501
0.8997874
0.8998277
0.8998685
0.8999065
0.899939
0.8999637
0.8999804
0.8999903
0.8999956
0.8999982
0.8999993
0.8999997
0.8999999
0.9
0.9
0.8996244
0.8996601
0.8996918
0.8997221
0.8997517
0.899781
0.8998105
0.8998404
0.8998711
0.8999011
0.8999266
0.8999472
0.8999632
0.8999752
0.899984
0.8999901
0.8999942
0.8999968
0.8999985
0.8999995
0.8996588
0.8996966
0.8997314
0.8997631
0.8997916
0.8998173
0.8998403
0.8998608
0.899879
0.8998949
0.8999084
0.8999197
0.8999288
0.8999359
0.8999413
0.8999453
0.8999481
0.8999499
0.8999508
0.8999511
0.8996812
0.8997196
0.8997554
0.8997876
0.8998161
0.8998407
0.8998618
0.8998799
0.8998952
0.8999082
0.8999191
0.8999282
0.8999357
0.8999419
0.8999469
0.8999508
0.8999537
0.8999555
0.8999564
0.8999566
0.8997151
0.8997528
0.8997866
0.8998158
0.8998406
0.8998614
0.8998789
0.8998939
0.8999067
0.8999176
0.8999268
0.8999344
0.8999407
0.8999461
0.8999513
0.8999558
0.8999595
0.899962
0.8999633
0.8999637
0.8997765
0.8998117
0.8998407
0.8998641
0.8998832
0.8998995
0.8999143
0.8999281
0.8999411
0.899953
0.8999633
0.8999717
0.8999777
0.8999808
0.8999818
0.899982
0.8999819
0.899982
0.8999821
0.8999823
0.8998233
0.8998612
0.8998931
0.8999162
0.899933
0.899946
0.8999568
0.899966
0.8999737
0.8999801
0.8999851
0.899989
0.8999921
0.8999945
0.8999963
0.8999977
0.8999987
0.8999993
0.8999997
0.8999999
0.8998326
0.8998701
0.8999001
0.8999204
0.8999342
0.8999452
0.8999554
0.8999653
0.8999745
0.8999825
0.8999889
0.8999936
0.8999966
0.8999984
0.8999993
0.8999997
0.8999999
0.9
0.9
0.9
0.8998242
0.8998615
0.8998914
0.8999126
0.8999286
0.8999424
0.8999555
0.8999676
0.8999783
0.8999868
0.8999929
0.8999966
0.8999986
0.8999995
0.8999998
0.8999999
0.9
0.9
0.9
0.9
0.8998274
0.8998655
0.8998974
0.8999207
0.8999365
0.8999486
0.8999594
0.8999693
0.899978
0.899985
0.8999902
0.8999937
0.8999959
0.8999973
0.8999982
0.8999988
0.8999993
0.8999996
0.8999998
0.8999999
0.8997594
0.8997966
0.8998289
0.8998557
0.8998776
0.8998958
0.8999115
0.8999253
0.8999376
0.8999485
0.899958
0.8999661
0.899973
0.8999787
0.8999831
0.8999865
0.8999887
0.8999901
0.8999908
0.899991
0.8997876
0.899824
0.8998546
0.899879
0.8998984
0.8999141
0.8999276
0.8999395
0.8999502
0.8999596
0.8999678
0.8999746
0.8999802
0.8999846
0.8999879
0.8999903
0.899992
0.8999929
0.8999935
0.8999936
0.8998429
0.8998807