/*--------------------------------*- C++ -*----------------------------------*\
| =========                 |                                                 |
| \\      /  F ield         | OpenFOAM: The Open Source CFD Toolbox           |
|  \\    /   O peration     | Version:  4.0                                   |
|   \\  /    A nd           | Web:      www.OpenFOAM.org                      |
|    \\/     M anipulation  |                                                 |
\*---------------------------------------------------------------------------*/
FoamFile
{
    version     2.0;
    format      ascii;
    class       volScalarField;
    location    "60/fuel";
    object      YCO2fuel;
}
// * * * * * * * * * * * * * * * * * * * * * * * * * * * * * * * * * * * * * //

dimensions      [0 0 0 0 0 0 0];

internalField   nonuniform List<scalar> 
39776
(
0.002523458
0.002493932
0.00155515
0.001525039
0.0009426455
0.0009119282
0.0008984401
0.0008676697
0.0009150465
0.0008843016
0.0009563085
0.0009256797
0.001574098
0.001544092
0.001527736
0.001497692
0.0009510157
0.0009203799
0.0009148189
0.0008841366
0.0009143846
0.0008837949
0.0009519327
0.000921392
0.001546656
0.001516719
0.001533219
0.001503271
0.0009499908
0.000919446
0.0009131506
0.0008825924
0.0009139071
0.0008833502
0.0009504005
0.0009198913
0.00153944
0.00150953
0.001535062
0.001505148
0.0009497905
0.00091928
0.0009140027
0.0008834466
0.0009140051
0.0008834494
0.0009497625
0.0009192536
0.001535168
0.001505256
0.001540498
0.001510562
0.0009511727
0.000920636
0.0009146644
0.0008840813
0.000913855
0.0008832712
0.0009500226
0.0009194863
0.001535769
0.001505759
0.001549655
0.001519655
0.0009538782
0.0009232725
0.0009161317
0.0008854782
0.0009141722
0.0008835166
0.0009501561
0.0009195497
0.001526373
0.001496357
0.001572663
0.001542683
0.0009553692
0.0009247678
0.0009126372
0.0008819817
0.0008936697
0.0008630626
0.0009376047
0.0009070575
0.001546612
0.001516677
0.002509339
0.002479996
0.002560684
0.002531367
0.001740085
0.001710318
0.001132538
0.001102249
0.001069029
0.001038674
0.001088179
0.001057847
0.00116783
0.001137582
0.00180778
0.001778074
0.001746252
0.0017165
0.001154136
0.001123872
0.001086885
0.001056551
0.001089375
0.001059045
0.001162849
0.001132569
0.001782766
0.001753014
0.001758988
0.001729217
0.0011575
0.00112721
0.001088379
0.001058019
0.00109115
0.001060722
0.0011622
0.001131847
0.001774815
0.001744987
0.001768589
0.001738754
0.001160978
0.00113062
0.001091108
0.001060678
0.001091089
0.001060661
0.001160917
0.001130563
0.001768694
0.001738862
0.001774881
0.001745051
0.001160749
0.001130464
0.001089673
0.001059314
0.001088481
0.001058122
0.001157559
0.001127273
0.001759779
0.001730011
0.001782937
0.001753211
0.001162857
0.001132602
0.001089842
0.001059513
0.001086709
0.001056377
0.001153789
0.001123528
0.00174573
0.00171598
0.001807057
0.001777349
0.001167424
0.001137174
0.001087411
0.00105708
0.001067534
0.001037183
0.001131306
0.001100997
0.001737461
0.001707676
0.002554975
0.00252566
0.002854576
0.002825394
0.002048804
0.002019209
0.001337329
0.001307145
0.00123563
0.001205358
0.001257915
0.001227667
0.001380909
0.001350771
0.002073346
0.002043711
0.002000873
0.001971191
0.001357693
0.00132753
0.001253103
0.00122285
0.001257654
0.001227407
0.001371957
0.001341811
0.002044829
0.002015247
0.002013636
0.001984032
0.00136103
0.001330941
0.00125314
0.001222957
0.00125536
0.001225181
0.001366164
0.001336111
0.002031453
0.00200189
0.002023572
0.001994001
0.001363921
0.001333863
0.001254128
0.001223974
0.001254094
0.001223942
0.001363843
0.001333789
0.002023709
0.001994141
0.002031424
0.002001858
0.001365914
0.001335857
0.001255049
0.001224868
0.001253169
0.001222988
0.001361067
0.001330982
0.002014261
0.00198466
0.002045307
0.002015722
0.001372286
0.001342136
0.001257953
0.001227704
0.001252973
0.001222721
0.001357374
0.001327216
0.002000345
0.001970666
0.002072894
0.002043257
0.001380678
0.001350536
0.001257419
0.001227171
0.001234593
0.001204325
0.001335962
0.001305788
0.002045939
0.002016354
0.002849877
0.002820696
0.003240588
0.003211559
0.002460442
0.002431069
0.001569993
0.001540072
0.001399023
0.001369002
0.001419852
0.001389853
0.00160829
0.001578438
0.002346763
0.002317377
0.002292129
0.002262711
0.001566769
0.001536879
0.001411038
0.001381031
0.001418561
0.001388562
0.001594607
0.001564744
0.002324466
0.002295068
0.00230182
0.002272379
0.001576143
0.001546233
0.001413741
0.001383707
0.001416997
0.001386969
0.001587905
0.001558009
0.002317017
0.002287517
0.002311136
0.002281629
0.001583999
0.001554023
0.001417148
0.001387046
0.00141711
0.00138701
0.001583957
0.001553987
0.002311209
0.002281705
0.002317145
0.002287641
0.001589567
0.001559595
0.001418615
0.001388514
0.001413826
0.001383794
0.001576227
0.001546321
0.002302338
0.0022729
0.002325771
0.002296342
0.001595615
0.001565719
0.001418823
0.001388821
0.001410968
0.001380962
0.001566563
0.001536679
0.002291669
0.002262253
0.002346458
0.002317069
0.001608073
0.001578214
0.001419469
0.001389469
0.001398179
0.001368164
0.001567893
0.00153801
0.00245669
0.002427356
0.00323635
0.003207322
0.003630432
0.003601539
0.002861345
0.002832155
0.001790951
0.001761184
0.001548348
0.001518421
0.001567983
0.001538005
0.00180925
0.001779441
0.002622689
0.002593341
0.002580528
0.002551156
0.001753389
0.001723535
0.001553734
0.001523744
0.001564674
0.001534694
0.001792656
0.001762834
0.002604799
0.00257544
0.002586191
0.00255682
0.001761537
0.001731758
0.001554296
0.001524376
0.00155849
0.001528576
0.001776005
0.001746242
0.002594032
0.002564738
0.002589503
0.00256023
0.00177422
0.001744477
0.001558265
0.001528376
0.001558224
0.001528337
0.001774181
0.001744445
0.002589482
0.002560212
0.002593416
0.002564144
0.001775744
0.001746001
0.001558238
0.001528347
0.001553714
0.001523823
0.00176171
0.001731931
0.002584641
0.002555336
0.002603486
0.002574186
0.001791306
0.001761541
0.001563265
0.001533346
0.001554214
0.0015242
0.001753784
0.00172391
0.002580929
0.002551534
0.002623329
0.00259395
0.001810004
0.001780162
0.001569996
0.001539932
0.001551625
0.00152155
0.001793627
0.00176372
0.002863225
0.002833895
0.003631925
0.003602883
0.004030624
0.004001685
0.003253521
0.003224312
0.002014787
0.001984982
0.001691207
0.001661208
0.00170303
0.001673044
0.001992369
0.001962622
0.002887247
0.002857963
0.00285029
0.002820986
0.001910911
0.001881107
0.001675637
0.001645686
0.001688137
0.001658276
0.001959497
0.001929808
0.002868292
0.002839077
0.002852881
0.002823655
0.001928383
0.001898669
0.001677288
0.001647445
0.001681499
0.001651661
0.001941182
0.00191151
0.002858094
0.002828902
0.002856207
0.002827011
0.001944214
0.001914539
0.001683595
0.001653758
0.001683564
0.001653729
0.001944222
0.001914554
0.00285614
0.002826949
0.002858669
0.002829453
0.001941762
0.001912063
0.001682093
0.001652232
0.001677708
0.001647846
0.001928403
0.001898702
0.002854038
0.002824768
0.002869731
0.002840464
0.001960569
0.001930825
0.001689074
0.001659161
0.001674959
0.001645039
0.001909962
0.001880194
0.002849158
0.002819889
0.002886403
0.002857145
0.001991718
0.001961996
0.001701157
0.001671255
0.001687801
0.001657949
0.002010497
0.001980848
0.003247592
0.003218535
0.004024138
0.003995339
0.004425502
0.004396814
0.003609668
0.003580747
0.002195268
0.002165728
0.001806741
0.001776986
0.001812787
0.001783043
0.00214249
0.002112942
0.003129052
0.003099976
0.003083676
0.003054579
0.002044613
0.002015003
0.001775564
0.001745796
0.001791265
0.00176151
0.002096985
0.002067389
0.003113078
0.003083974
0.00310078
0.003071667
0.002072248
0.002042631
0.001783743
0.001753957
0.001788799
0.001758962
0.00208477
0.002055111
0.00310657
0.003077407
0.003105767
0.0030766
0.002086312
0.002056645
0.001791062
0.001761224
0.00179103
0.001761195
0.002086325
0.002056666
0.003105681
0.003076518
0.003106706
0.00307754
0.00208347
0.002053859
0.00178755
0.001757767
0.001783798
0.001754015
0.002072463
0.002042853
0.003101048
0.003071939
0.00311294
0.003083855
0.002096557
0.002066977
0.001791396
0.001761639
0.001775305
0.001745541
0.002044052
0.002014449
0.003082928
0.003053836
0.003128699
0.003099621
0.002142316
0.002112764
0.001812135
0.001782392
0.001805416
0.001775671
0.002193495
0.002163952
0.003606467
0.003577541
0.004421322
0.00439264
0.004815769
0.004787187
0.003940696
0.00391186
0.002353558
0.002324023
0.001909671
0.001879905
0.001908075
0.001878315
0.002263991
0.002234431
0.003355118
0.003326051
0.003315551
0.003286466
0.002174549
0.002144934
0.001869803
0.00184002
0.001884825
0.001855054
0.00222274
0.002193159
0.003336697
0.00330768
0.003326498
0.003297473
0.002197212
0.002167666
0.001875853
0.00184613
0.001879369
0.001849652
0.002208287
0.002178777
0.003329276
0.003300279
0.003328483
0.003299481
0.002205635
0.002176117
0.001879982
0.001850285
0.001879971
0.001850276
0.002205696
0.002176185
0.003328398
0.003299401
0.003329395
0.003300393
0.002207953
0.002178436
0.001879113
0.001849392
0.001875924
0.001846205
0.002197531
0.002167993
0.003326687
0.003297666
0.003336918
0.003307897
0.002222523
0.002192935
0.001884821
0.001855048
0.001869555
0.001839775
0.00217393
0.002144323
0.003314863
0.003285783
0.003354876
0.003325806
0.002264158
0.002234593
0.001907659
0.0018779
0.001908664
0.001878908
0.002351575
0.002322059
0.003937112
0.003908295
0.004811735
0.004783158
0.005192043
0.005163554
0.004244773
0.00421603
0.002490318
0.002460907
0.001997488
0.001967856
0.001988065
0.001958435
0.002366229
0.002336801
0.003555668
0.003526752
0.003522202
0.003493271
0.002290877
0.002261406
0.001952253
0.001922603
0.001964342
0.001934702
0.002325556
0.002296109
0.003536649
0.003507727
0.003531309
0.003502359
0.002315565
0.002286084
0.001960088
0.001930419
0.001962706
0.001933041
0.002326714
0.002297246
0.003534023
0.003505021
0.003526706
0.003497698
0.002312261
0.00228272
0.001961048
0.001931323
0.001961035
0.001931313
0.002312285
0.002282752
0.00352689
0.003497886
0.00353427
0.003505264
0.002327918
0.002298385
0.001964046
0.001934323
0.001960272
0.001930606
0.002316064
0.00228659
0.003531509
0.003502562
0.003537504
0.003508555
0.002325667
0.002296189
0.001964193
0.001934549
0.001951724
0.001922077
0.002289703
0.002260238
0.003521507
0.00349258
0.003555602
0.003526682
0.002366916
0.002337484
0.001987832
0.001958203
0.00199681
0.001967188
0.002487883
0.002458513
0.004240558
0.004211854
0.00518815
0.005159666
0.00555026
0.005521854
0.004526442
0.004497777
0.002616457
0.002587103
0.002078919
0.002049311
0.002063396
0.002033731
0.002459956
0.002430496
0.003739561
0.003710629
0.003712425
0.00368348
0.00240062
0.002371125
0.002030507
0.002000824
0.002038005
0.002008329
0.002418419
0.002388938
0.003699326
0.003670379
0.003716465
0.00368752
0.002436726
0.002407304
0.002041214
0.002011592
0.002040622
0.002011003
0.002435124
0.002405708
0.003715144
0.003686258
0.003700944
0.003672072
0.002409625
0.002380211
0.002033005
0.002003402
0.002032975
0.002003374
0.0024096
0.002380194
0.003701163
0.003672293
0.003714771
0.003685902
0.002434814
0.002405411
0.002040406
0.002010805
0.002040868
0.002011271
0.002437357
0.002407936
0.003714953
0.003686061
0.003697461
0.003668558
0.002416789
0.002387349
0.0020366
0.00200697
0.002030537
0.002000828
0.002400159
0.002370642
0.00371262
0.003683651
0.003740484
0.00371152
0.002461411
0.002431917
0.002065322
0.002035577
0.002081854
0.002052121
0.002618497
0.002589027
0.004527491
0.00449871
0.005551486
0.005522952
0.005895009
0.005866517
0.004794952
0.004766197
0.002741758
0.002712294
0.002159434
0.002129706
0.002134828
0.002105095
0.002547253
0.002517774
0.003904226
0.003875287
0.00388453
0.003855582
0.002505217
0.002475713
0.002102538
0.002072837
0.00210344
0.002073819
0.002501017
0.002471594
0.003834977
0.003806091
0.003879518
0.003850642
0.002553939
0.002524534
0.002118924
0.002089334
0.002112548
0.002082958
0.002527672
0.002498288
0.003880016
0.003851172
0.003870449
0.003841596
0.002513708
0.002484311
0.002106687
0.002077093
0.002106653
0.002077062
0.002513663
0.002484274
0.003870548
0.003841701
0.00388065
0.003851783
0.002528157
0.002498747
0.002113086
0.002083475
0.002119407
0.002089803
0.00255418
0.002524791
0.003880208
0.003851297
0.003835525
0.003806594
0.002501571
0.0024721
0.002104011
0.002074346
0.002101544
0.002071881
0.00250396
0.002474499
0.003882851
0.003853942
0.003902676
0.00387377
0.002546622
0.002517174
0.002132898
0.002103251
0.002156026
0.002126444
0.002737376
0.002708067
0.004788652
0.004760047
0.005888405
0.005860049
0.006212249
0.006183954
0.005040379
0.005011837
0.002857408
0.002828148
0.002229491
0.002199958
0.002195809
0.002166266
0.002626721
0.002597386
0.004047719
0.00401893
0.004034502
0.004005707
0.002597917
0.002568564
0.002165298
0.002135741
0.002162776
0.002133221
0.002575659
0.002546284
0.003949446
0.003920608
0.004023211
0.003994393
0.002659969
0.002630626
0.002191874
0.002162311
0.002178781
0.002149165
0.002608905
0.002579495
0.004020646
0.003991783
0.004026539
0.003997673
0.00262119
0.002591779
0.002180423
0.002150805
0.002180377
0.002150763
0.002621094
0.002591692
0.004026548
0.003997687
0.004020806
0.003991938
0.002607813
0.002578445
0.002177717
0.002148147
0.002192029
0.002162471
0.002660337
0.002631003
0.004023044
0.003994231
0.003948411
0.003919588
0.002575036
0.002545674
0.002162686
0.002133129
0.002164894
0.002135342
0.002597059
0.002567716
0.004033417
0.004004628
0.004046984
0.004018194
0.002626694
0.002597355
0.002195225
0.002165686
0.002227982
0.002198462
0.002855468
0.002826211
0.005036827
0.005008287
0.006207875
0.006179588
0.006513527
0.006485293
0.005273451
0.005244948
0.002969874
0.002940593
0.002298763
0.002269199
0.002256577
0.002227
0.002700744
0.002671375
0.004165106
0.004136287
0.004172008
0.004143188
0.002694369
0.002664994
0.00223023
0.002200642
0.002221643
0.002192054
0.002648498
0.002619109
0.004059752
0.004030951
0.004151679
0.004122903
0.002750335
0.002721035
0.002257517
0.002227992
0.00223692
0.002207388
0.002679483
0.002650177
0.004132928
0.004104169
0.004162047
0.004133293
0.002715681
0.002686384
0.002245541
0.002216031
0.002245492
0.002215985
0.002715618
0.00268633
0.004161967
0.004133218
0.004132946
0.004104182
0.002679344
0.00265003
0.002236742
0.002207207
0.002257649
0.002228128
0.002750649
0.002721356
0.004151379
0.004122607
0.004059024
0.004030218
0.002648229
0.002618833
0.002221517
0.002191924
0.00222987
0.002200285
0.002693571
0.002664204
0.004171022
0.004142207
0.004164465
0.004135642
0.002700721
0.002671348
0.002256156
0.002226581
0.002297346
0.002267795
0.002967482
0.002938223
0.005269519
0.005241036
0.006509302
0.006481076
0.006797742
0.006769563
0.005494648
0.005466196
0.003077914
0.003048725
0.002363363
0.002333903
0.002310789
0.002281311
0.002763672
0.002734401
0.0042542
0.004225475
0.004290697
0.004261981
0.002792555
0.002763293
0.002293216
0.002263732
0.002276725
0.002247236
0.00271849
0.002689203
0.004175557
0.004146811
0.004270042
0.004241301
0.002830275
0.002801009
0.002317967
0.002288476
0.002292646
0.002263144
0.002748164
0.00271887
0.004237204
0.004208407
0.004286177
0.004257392
0.002806974
0.002777649
0.002310244
0.002280699
0.002310184
0.002280642
0.002806849
0.002777532
0.004286054
0.004257273
0.00423735
0.004208549
0.002749534
0.002720182
0.002293916
0.002264362
0.002318179
0.002288691
0.002830583
0.002801324
0.004269714
0.004240977
0.004175476
0.004146706
0.002718847
0.002689532
0.002276633
0.00224714
0.002292768
0.002263287
0.00279136
0.002762105
0.004290001
0.004261289
0.004254897
0.004226169
0.002764029
0.002734753
0.002310568
0.002281092
0.002362223
0.002332775
0.00307531
0.003046161
0.005490278
0.005461865
0.006793673
0.006765499
0.007065377
0.007037247
0.005698808
0.005670401
0.003172054
0.0031429
0.00242473
0.00239528
0.002363356
0.002333836
0.002820656
0.00279134
0.004322117
0.004293343
0.004397165
0.004368411
0.002887493
0.002858202
0.002359377
0.002329856
0.002334162
0.002304632
0.002789607
0.00276028
0.004293193
0.004264412
0.00438161
0.004352851
0.002898279
0.002869039
0.002373069
0.002343604
0.002345578
0.002316103
0.002811898
0.00278263
0.004327787
0.004299064
0.004393808
0.004365119
0.00288713
0.002857905
0.002369753
0.002340306
0.002369674
0.00234023
0.002886951
0.002857734
0.004393648
0.004364962
0.004327462
0.004298752
0.002811936
0.002782678
0.002345534
0.002316073
0.002372821
0.002343377
0.002898664
0.002869425
0.004379911
0.004351196
0.004291272
0.004262526
0.00278846
0.002759166
0.002333019
0.002303525
0.002359677
0.002330126
0.002887225
0.002857907
0.004397883
0.004369099
0.004324407
0.004295595
0.002822227
0.002792872
0.002365448
0.002335847
0.002427242
0.002397673
0.003173602
0.003144339
0.005699466
0.005670951
0.007066283
0.007038032
0.007323739
0.007295497
0.005902455
0.005873933
0.003280776
0.0032515
0.002491197
0.002461617
0.002417399
0.002387792
0.002874354
0.002844994
0.00437969
0.004350865
0.004492096
0.004463302
0.002985993
0.002956675
0.002427356
0.002397803
0.002390905
0.002361417
0.002858724
0.002829439
0.004407886
0.004379151
0.004485743
0.004457026
0.002969026
0.00293978
0.002429291
0.002399845
0.002399809
0.002370352
0.002876925
0.002847676
0.004424112
0.004395408
0.004496408
0.00446772
0.002969876
0.002940659
0.002432481
0.002403038
0.002432405
0.002402966
0.002969741
0.002940532
0.004496169
0.004467487
0.004424528
0.004395803
0.002877608
0.002848334
0.002400394
0.002370918
0.002429735
0.002400277
0.002968924
0.002939697
0.004485972
0.004457225
0.00440806
0.004379286
0.002859318
0.002829991
0.002391374
0.002361848
0.002425911
0.002396405
0.002983959
0.002954694
0.004490572
0.004461827
0.00437924
0.004350457
0.002873806
0.002844486
0.002415352
0.002385839
0.002487369
0.002457939
0.003275692
0.003246575
0.005895548
0.005867182
0.007316669
0.007288566
0.007561847
0.007533779
0.006094177
0.006065848
0.003388192
0.003359111
0.002551367
0.002521973
0.002463217
0.002433791
0.002920402
0.002891174
0.004430239
0.004401539
0.004572626
0.004543964
0.003074643
0.003045473
0.002487771
0.00245836
0.002443411
0.002413982
0.002922694
0.002893452
0.00450397
0.004475276
0.004582741
0.004554065
0.003042319
0.003013117
0.002485514
0.002456084
0.002454108
0.002424619
0.002944687
0.002915407
0.00453482
0.004506089
0.004597008
0.00456829
0.003038876
0.003009626
0.002490136
0.002460661
0.002490075
0.002460603
0.003038791
0.003009549
0.004596729
0.004568016
0.004534627
0.004505892
0.002943748
0.002914506
0.00245313
0.002423685
0.002485542
0.002456116
0.003042154
0.003012961
0.00458234
0.004553668
0.004503221
0.004474541
0.002922292
0.002893061
0.002443334
0.002413903
0.002487069
0.002457662
0.003073517
0.003044356
0.004571842
0.004543186
0.004430216
0.004401514
0.002920467
0.002891235
0.002462533
0.002433111
0.002549626
0.002520247
0.00338569
0.003356615
0.006090057
0.006061733
0.007557055
0.007528995
0.007797334
0.007769306
0.00630174
0.006273436
0.003536008
0.003506915
0.002627915
0.002598492
0.002517273
0.00248781
0.002975374
0.002946105
0.004496008
0.004467263
0.004655485
0.004626783
0.003175803
0.003146609
0.002556134
0.002526692
0.00249998
0.002470515
0.002992195
0.002962935
0.004605731
0.004577066
0.004679048
0.004650399
0.003126811
0.003097644
0.002545399
0.002515999
0.002510405
0.002480992
0.00302252
0.002993338
0.004644529
0.004615894
0.004692283
0.004663655
0.003107491
0.003078334
0.00254419
0.002514807
0.002544146
0.002514767
0.003107455
0.003078306
0.004691984
0.004663361
0.004644384
0.004615743
0.003022282
0.002993092
0.002510198
0.002480781
0.002545286
0.002515889
0.003126423
0.003097264
0.004678657
0.004650012
0.004605741
0.004577071
0.002992221
0.002962953
0.002499929
0.002470461
0.0025556
0.002526162
0.003174966
0.003145781
0.004654749
0.004626052
0.004495791
0.004467044
0.002975453
0.002946179
0.002516752
0.002487291
0.002626417
0.002597008
0.003533414
0.003504344
0.006297413
0.006269131
0.007792707
0.007764686
0.008045244
0.008017255
0.006563957
0.006535704
0.003781739
0.003752775
0.002733893
0.002704582
0.002580075
0.002550706
0.003045176
0.003016
0.004614744
0.004586097
0.004751131
0.004722518
0.003294706
0.003265622
0.00263192
0.002602579
0.002564974
0.002535605
0.003092175
0.00306302
0.004719715
0.004691099
0.004782205
0.004753583
0.003235181
0.003206056
0.002614386
0.002585018
0.002577837
0.002548456
0.003133206
0.003104049
0.004757627
0.004728957
0.004795362
0.004766697
0.00321047
0.003181288
0.002611686
0.00258227
0.002611642
0.002582229
0.003210417
0.003181243
0.00479507
0.00476641
0.00475762
0.004728945
0.003134331
0.003105119
0.002578968
0.002549537
0.00261428
0.002584914
0.003234722
0.003205604
0.004781864
0.004753246
0.004720408
0.004691769
0.003092931
0.00306375
0.002565007
0.002535635
0.002631522
0.002602183
0.003294088
0.003265013
0.00475041
0.004721802
0.00461427
0.004585619
0.00304521
0.003016029
0.002579612
0.002550246
0.002732439
0.002703142
0.003778555
0.003749631
0.006559119
0.006530905
0.008040798
0.008012816
0.008324543
0.008296597
0.006856393
0.006828193
0.00403553
0.004006642
0.002849569
0.002820287
0.002652609
0.002623206
0.003129243
0.003100032
0.004728122
0.004699439
0.004863435
0.004834784
0.003423194
0.00339409
0.002713504
0.00268413
0.002636421
0.002607017
0.00320315
0.00317397
0.004843076
0.004814425
0.004898374
0.004869733
0.003349535
0.003320448
0.002685713
0.002656374
0.00264925
0.002619898
0.003251717
0.003222601
0.004875807
0.004847209
0.004905397
0.00487682
0.003316264
0.003287182
0.002678993
0.002649668
0.002678949
0.002649627
0.003316218
0.003287145
0.004905119
0.004876545
0.004875319
0.004846732
0.003251486
0.003222378
0.00264906
0.002619721
0.002685086
0.002655767
0.003349091
0.003320002
0.004896858
0.004868256
0.004842203
0.004813582
0.003202771
0.003173618
0.002635649
0.002606277
0.002714329
0.002684917
0.003424041
0.003394902
0.004864161
0.004835473
0.004728787
0.004700057
0.003130474
0.003101214
0.002654589
0.0026251
0.002851768
0.002822364
0.004036432
0.004007433
0.006856766
0.006828455
0.008325439
0.008297368
0.008730893
0.008702845
0.00746698
0.007438726
0.004888941
0.004860133
0.003179796
0.003150473
0.002853197
0.002823758
0.003491921
0.003462774
0.004941198
0.004912496
0.005062601
0.005033925
0.003818501
0.003789462
0.002899337
0.002869969
0.002816191
0.002786874
0.003598216
0.003569193
0.005041539
0.005012946
0.005091706
0.00506312
0.003733887
0.003704902
0.002862948
0.002833676
0.002829279
0.002799997
0.003650413
0.003621436
0.005073101
0.005044543
0.005096306
0.005067749
0.003698648
0.003669681
0.002855212
0.002825939
0.00285513
0.002825861
0.003698492
0.003669533
0.00509596
0.00506741
0.005073483
0.005044906
0.003650864
0.003621864
0.00282971
0.00280041
0.002862944
0.002833661
0.003732885
0.003703921
0.00509196
0.005063348
0.005042518
0.00501389
0.003599514
0.003570452
0.002816903
0.002787553
0.002897983
0.002868671
0.003816819
0.00378784
0.005060376
0.005031756
0.004939071
0.004910417
0.003490299
0.0034612
0.002850471
0.002821134
0.003174991
0.003145828
0.004882178
0.004853535
0.007458693
0.007430598
0.008722671
0.008694767
0.009416485
0.009388671
0.008512392
0.008484462
0.006433952
0.006405659
0.004128936
0.00410009
0.003437985
0.003408927
0.00426667
0.004237888
0.005376019
0.00534753
0.00548113
0.005452663
0.004543056
0.004514351
0.003447485
0.003418442
0.003356501
0.003327429
0.00436634
0.004337576
0.005465117
0.005436635
0.005507694
0.005479217
0.004472597
0.004443855
0.003402043
0.003372967
0.003372878
0.00334375
0.004417897
0.004389103
0.00549872
0.005470201
0.005514232
0.005485712
0.004445833
0.004417039
0.003390149
0.003361023
0.003390015
0.003360893
0.004445529
0.004416743
0.005513889
0.005485373
0.005498705
0.005470182
0.00441672
0.004387963
0.003371507
0.00334242
0.00340156
0.003372487
0.004471751
0.004443018
0.005507248
0.005478776
0.005464792
0.005436323
0.004366456
0.004337703
0.003356735
0.00332766
0.003446942
0.003417904
0.00454202
0.004513324
0.005479744
0.005451283
0.005374825
0.005346336
0.004265663
0.00423688
0.003436523
0.003407472
0.004125881
0.004097055
0.006429402
0.006401118
0.008506947
0.00847902
0.009410702
0.009382893
0.002437816
0.002357166
0.0022793
0.002204895
0.002134555
0.002068796
0.002008043
0.001952619
0.001902742
0.001858522
0.001819959
0.001786946
0.00175928
0.001736665
0.001718731
0.001705042
0.001695113
0.001688429
0.001684464
0.001682706
0.001467781
0.001383912
0.001302028
0.001223323
0.001148809
0.001079335
0.001015598
0.0009581382
0.0009073273
0.000863358
0.0008262356
0.0007957788
0.0007716309
0.0007532784
0.0007400768
0.0007312754
0.0007260452
0.0007235035
0.000722736
0.0007228161
0.0008535002
0.0007666709
0.0006798885
0.00059424
0.0005110734
0.0004318794
0.0003581412
0.0002911717
0.0002319622
0.0001810729
0.000138585
0.0001041235
7.69417e-05
5.604606e-05
4.03327e-05
2.870984e-05
2.018835e-05
1.393416e-05
9.285715e-06
5.745949e-06
0.0008091536
0.0007229852
0.0006375467
0.0005538079
0.0004729888
0.0003964448
0.0003255242
0.0002614159
0.0002050101
0.000156798
0.0001168279
8.472422e-05
5.976296e-05
4.098401e-05
2.731593e-05
1.769016e-05
1.112839e-05
6.796145e-06
4.023987e-06
2.303194e-06
0.0008258346
0.000739778
0.0006544409
0.0005707174
0.0004897412
0.0004127864
0.0003411431
0.0002759798
0.0002182117
0.0001683986
0.000126689
9.282156e-05
6.618071e-05
4.588983e-05
3.093018e-05
2.025432e-05
1.287783e-05
7.940881e-06
4.738438e-06
2.723962e-06
0.0008674193
0.0007807759
0.0006940619
0.0006083122
0.0005248322
0.000445086
0.0003705512
0.0003025589
0.0002421425
0.0001899235
0.0001460562
0.0001102397
8.179278e-05
5.977348e-05
4.310837e-05
3.071432e-05
2.159314e-05
1.488976e-05
9.91563e-06
6.145293e-06
0.001487054
0.001404793
0.001325311
0.0012494
0.001177728
0.001110855
0.001049236
0.0009932244
0.0009430569
0.0008988509
0.0008605986
0.0008281683
0.0008013128
0.0007796829
0.0007628441
0.0007502942
0.0007414796
0.0007358093
0.000732665
0.0007314109
0.001440579
0.001358036
0.001278157
0.001201778
0.001129608
0.001062242
0.00100017
0.0009437728
0.000893314
0.0008489284
0.0008106176
0.0007782509
0.0007515727
0.0007302165
0.0007137229
0.000701558
0.0006931317
0.0006878133
0.000684944
0.000683848
0.0008621072
0.0007755155
0.000688928
0.0006033789
0.0005201674
0.0004407456
0.0003665758
0.0002989721
0.0002389517
0.0001871226
0.0001436291
0.0001081637
8.004156e-05
5.831678e-05
4.191416e-05
2.975141e-05
2.083318e-05
1.430944e-05
9.495658e-06
5.869596e-06
0.0008257882
0.0007398879
0.0006546882
0.0005710824
0.0004902026
0.0004133207
0.0003417245
0.0002765803
0.0002188031
0.0001689542
0.0001271864
9.324474e-05
6.652098e-05
4.614865e-05
3.111711e-05
2.038339e-05
1.296397e-05
7.996279e-06
4.772525e-06
2.743692e-06
0.0008256227
0.0007399751
0.0006550144
0.0005716249
0.0004909275
0.0004141841
0.0003426749
0.0002775634
0.000219767
0.0001698543
0.0001279898
9.39316e-05
6.708484e-05
4.659409e-05
3.145663e-05
2.063294e-05
1.313969e-05
8.114805e-06
4.849029e-06
2.790787e-06
0.0008632997
0.0007769382
0.0006905389
0.0006051305
0.0005220083
0.0004426228
0.0003684372
0.0003007697
0.000240644
0.000188677
0.0001450225
0.0001093836
8.108509e-05
5.918898e-05
4.262611e-05
3.031891e-05
2.12748e-05
1.464219e-05
9.734425e-06
6.02694e-06
0.001459813
0.001377665
0.001298234
0.001222327
0.001150625
0.001083702
0.001022028
0.0009659675
0.0009157697
0.0008715617
0.0008333424
0.0008009835
0.0007742372
0.00075275
0.000736079
0.0007237103
0.0007150757
0.0007095676
0.0007065498
0.0007053685
0.001446341
0.001364111
0.00128457
0.001208535
0.0011367
0.001069648
0.001007859
0.0009517032
0.0009014372
0.0008571919
0.0008189677
0.0007866361
0.0007599463
0.0007385398
0.0007219669
0.0007097055
0.0007011777
0.0006957656
0.0006928226
0.0006916845
0.0008613465
0.0007749955
0.00068863
0.0006032797
0.0005202391
0.0004409571
0.0003668935
0.000299362
0.0002393816
0.0001875636
0.0001440572
0.000108561
8.039615e-05
5.862236e-05
4.216901e-05
2.995719e-05
2.09947e-05
1.44318e-05
9.58374e-06
5.927755e-06
0.00082448
0.0007389211
0.0006540499
0.0005707506
0.0004901446
0.0004134933
0.0003420759
0.0002770544
0.0002193439
0.0001695109
0.0001277177
9.372114e-05
6.692555e-05
4.64757e-05
3.136973e-05
2.057043e-05
1.309603e-05
8.085164e-06
4.829412e-06
2.778054e-06
0.0008252403
0.0007396864
0.000654819
0.0005715194
0.000490905
0.0004142341
0.0003427835
0.0002777142
0.0002199426
0.0001700382
0.0001281674
9.4092e-05
6.72211e-05
4.670325e-05
3.153904e-05
2.069226e-05
1.318032e-05
8.141184e-06
4.865089e-06
2.799717e-06
0.000861859
0.0007755935
0.0006892974
0.0006039983
0.0005209891
0.0004417176
0.0003676441
0.0003000835
0.0002400573
0.0001881805
0.0001446063
0.0001090379
8.080041e-05
5.8957e-05
4.243953e-05
3.017053e-05
2.115891e-05
1.455426e-05
9.67087e-06
5.984911e-06
0.001452675
0.001370581
0.001291188
0.001215306
0.001143622
0.00107671
0.001015045
0.0009589947
0.0009088105
0.0008646215
0.0008264277
0.0007941013
0.000767394
0.0007459508
0.0007293271
0.0007170062
0.000708417
0.0007029483
0.0006999605
0.0006987964
0.001448283
0.001366159
0.001286727
0.001210799
0.001139064
0.001072103
0.001010391
0.0009542979
0.0009040782
0.0008598625
0.0008216516
0.0007893182
0.0007626138
0.0007411827
0.0007245784
0.0007122822
0.0007037201
0.0006982776
0.0006953114
0.0006941601
0.0008612454
0.0007749822
0.0006886947
0.0006034108
0.0005204236
0.0004411807
0.0003671419
0.0002996213
0.0002396389
0.0001878084
0.0001442813
0.0001087592
8.056591e-05
5.876347e-05
4.228302e-05
3.004676e-05
2.106337e-05
1.448289e-05
9.620194e-06
5.952028e-06
0.0008253383
0.0007397865
0.0006549213
0.0005716236
0.0004910108
0.0004143403
0.0003428887
0.0002778163
0.0002200391
0.0001701266
0.0001282457
9.415882e-05
6.727576e-05
4.674598e-05
3.157083e-05
2.071466e-05
1.319536e-05
8.150748e-06
4.870748e-06
2.802715e-06
0.0008253417
0.000739791
0.0006549268
0.0005716301
0.0004910181
0.0004143482
0.0003428968
0.0002778244
0.0002200468
0.0001701338
0.0001282521
9.416421e-05
6.728017e-05
4.674946e-05
3.157347e-05
2.071658e-05
1.319671e-05
8.151646e-06
4.871319e-06
2.803056e-06
0.000861222
0.000774963
0.0006886794
0.0006033989
0.0005204148
0.0004411748
0.0003671383
0.0002996196
0.0002396388
0.0001878094
0.0001442831
0.0001087615
8.056842e-05
5.876599e-05
4.22854e-05