/*--------------------------------*- C++ -*----------------------------------*\
| =========                 |                                                 |
| \\      /  F ield         | OpenFOAM: The Open Source CFD Toolbox           |
|  \\    /   O peration     | Version:  4.0                                   |
|   \\  /    A nd           | Web:      www.OpenFOAM.org                      |
|    \\/     M anipulation  |                                                 |
\*---------------------------------------------------------------------------*/
FoamFile
{
    version     2.0;
    format      ascii;
    class       volScalarField;
    location    "60/fuel";
    object      YCO2fuel;
}
// * * * * * * * * * * * * * * * * * * * * * * * * * * * * * * * * * * * * * //

dimensions      [0 0 0 0 0 0 0];

internalField   nonuniform List<scalar> 
39776
(
0.0003697295
0.0003552231
0.0003927531
0.0003782828
0.0004280762
0.0004136591
0.0004390331
0.0004246306
0.0004206886
0.0004062588
0.0004094778
0.0003950352
0.0003690973
0.0003545927
0.0003666175
0.0003521086
0.0003998763
0.0003854214
0.000358495
0.000343973
0.0003557386
0.0003412122
0.0003757146
0.0003612231
0.0003462442
0.0003317024
0.0003509867
0.0003364536
0.0003839564
0.0003694789
0.0003468751
0.0003323352
0.0003502344
0.0003357001
0.0003764934
0.0003620037
0.0003456972
0.0003311548
0.0003487621
0.0003342261
0.0003807394
0.0003662584
0.0003492526
0.0003347167
0.0003492886
0.0003347526
0.0003807985
0.0003663176
0.0003488039
0.0003342687
0.0003455923
0.0003310497
0.0003763595
0.0003618696
0.0003501096
0.000335575
0.0003468618
0.0003323217
0.0003838699
0.0003693927
0.0003509343
0.0003364015
0.0003464945
0.0003319534
0.0003759881
0.0003614972
0.0003559239
0.0003413982
0.0003585394
0.0003440176
0.0003998934
0.0003854387
0.0003665079
0.0003519991
0.0003689182
0.0003544135
0.0004093168
0.0003948744
0.0004205394
0.0004061094
0.0004391671
0.0004247648
0.0004279204
0.0004135038
0.0003926742
0.0003782044
0.0003697463
0.0003552407
0.0003351275
0.00032057
0.0002722879
0.0002576147
0.0002245822
0.0002097912
0.0002150301
0.000200214
0.0002235847
0.0002087893
0.0002203408
0.000205538
0.0002897633
0.0002751246
0.0002609477
0.0002462483
0.0002045493
0.0001897033
0.0001960684
0.0001811987
0.0001947754
0.0001799028
0.0002006846
0.000185827
0.0002621154
0.0002474182
0.000260336
0.0002456354
0.0002012781
0.0001864229
0.0001937415
0.0001788641
0.0001937373
0.0001788593
0.0001998223
0.0001849614
0.0002592891
0.000244585
0.0002611923
0.000246493
0.0002012613
0.0001864055
0.000193576
0.0001786974
0.0001936332
0.0001787546
0.0002013022
0.0001864465
0.000261218
0.0002465188
0.0002592245
0.0002445202
0.0001997372
0.0001848767
0.0001936126
0.0001787348
0.000193673
0.0001787955
0.0002012891
0.0001864341
0.0002603742
0.0002456739
0.0002622322
0.0002475363
0.0002008316
0.0001859754
0.0001950072
0.0001801344
0.0001961595
0.0001812905
0.0002046155
0.0001897701
0.0002610757
0.0002463769
0.0002896465
0.0002750078
0.000220248
0.0002054455
0.0002235767
0.0002087817
0.0002151147
0.0002002988
0.0002246916
0.0002099
0.0002724087
0.000257735
0.0003351861
0.0003206291
0.0003038077
0.0002891932
0.0002524965
0.0002377766
0.0002118526
0.0001970253
0.0002247259
0.0002099338
0.0002503711
0.0002356409
0.0002369663
0.0002222033
0.0002907754
0.0002761328
0.0002619544
0.0002472519
0.0002149882
0.0002001696
0.0002225317
0.0002077336
0.0002252211
0.0002104294
0.0002150079
0.0002001898
0.0002675433
0.0002528538
0.0002676037
0.0002529142
0.000215602
0.0002007865
0.0002226078
0.0002078104
0.0002238304
0.0002090356
0.0002136804
0.0001988601
0.0002654372
0.0002507442
0.0002676257
0.0002529373
0.0002154638
0.000200649
0.0002231792
0.000208384
0.0002232057
0.0002084105
0.0002154791
0.0002006643
0.0002676372
0.0002529488
0.0002654086
0.0002507155
0.000213601
0.0001987805
0.0002237298
0.0002089348
0.0002225931
0.0002077956
0.0002157445
0.0002009294
0.0002677953
0.0002531063
0.000267442
0.0002527522
0.0002151097
0.0002002917
0.0002252818
0.0002104904
0.000222595
0.000207797
0.0002149671
0.0002001485
0.0002620535
0.0002473513
0.0002907092
0.0002760664
0.0002368646
0.0002221013
0.0002504053
0.0002356751
0.0002247985
0.0002100063
0.0002118596
0.000197032
0.0002525021
0.0002377821
0.0003038363
0.0002892218
0.0003005692
0.0002859467
0.0002641117
0.0002494149
0.0002209492
0.0002061477
0.0002397007
0.0002249474
0.0002768865
0.0002622164
0.0002555124
0.000240793
0.0003130153
0.0002984153
0.0002824424
0.0002677851
0.0002335877
0.0002188187
0.0002479704
0.0002332359
0.0002523205
0.0002375958
0.0002354173
0.0002206529
0.0002930729
0.0002784367
0.0002847149
0.0002700596
0.0002341353
0.000219367
0.0002494391
0.000234707
0.0002508313
0.0002361022
0.0002335694
0.0002187992
0.0002882841
0.0002736365
0.0002870456
0.0002723946
0.0002346272
0.0002198595
0.0002506035
0.0002358733
0.0002506035
0.0002358732
0.0002347011
0.0002199336
0.0002871584
0.0002725076
0.0002880923
0.0002734447
0.0002334568
0.0002186859
0.000250734
0.0002360043
0.0002494499
0.0002347178
0.0002343001
0.000219532
0.0002849032
0.0002702482
0.0002930679
0.0002784304
0.0002355226
0.0002207571
0.0002523999
0.0002376753
0.000248005
0.0002332703
0.000233516
0.0002187468
0.0002824809
0.0002678234
0.0003129051
0.0002983049
0.0002553681
0.0002406479
0.0002769486
0.0002622781
0.0002397672
0.0002250133
0.0002209475
0.0002061463
0.0002641166
0.0002494202
0.0003006166
0.0002859936
0.0003230067
0.0003084246
0.000278293
0.0002636247
0.0002373172
0.0002225568
0.0002592177
0.0002445085
0.000300161
0.0002855354
0.0002799499
0.000265281
0.0003310723
0.0003165027
0.000301922
0.0002873003
0.0002554152
0.000240696
0.0002716514
0.0002569674
0.0002764664
0.0002617923
0.000261588
0.0002468818
0.0003118071
0.0002972048
0.0003015991
0.000286976
0.0002563672
0.0002416503
0.0002735803
0.0002589008
0.0002749049
0.0002602279
0.0002584578
0.000243745
0.0003078252
0.0002932154
0.0003044373
0.0002898207
0.0002575259
0.0002428123
0.0002747769
0.0002601006
0.000274791
0.0002601146
0.0002576201
0.0002429066
0.0003045371
0.0002899199
0.0003076675
0.0002930576
0.0002583535
0.0002436405
0.0002747939
0.0002601168
0.000273621
0.0002589417
0.0002565651
0.0002418482
0.0003018453
0.0002872224
0.000311815
0.0002972124
0.0002615968
0.0002468903
0.0002765572
0.0002618831
0.0002716583
0.000256974
0.0002553026
0.000240583
0.0003018528
0.0002872309
0.0003309673
0.0003163975
0.0002798683
0.0002651993
0.0003002179
0.0002855924
0.0002592929
0.000244583
0.0002373337
0.0002225727
0.0002783091
0.0002636402
0.0003230336
0.0003084509
0.0003411562
0.0003266036
0.0002928775
0.0002782361
0.0002568433
0.0002421261
0.000277723
0.0002630515
0.0003207455
0.0003061567
0.0002995719
0.0002849408
0.0003535065
0.0003389732
0.000319388
0.000304796
0.0002754731
0.0002607951
0.0002923656
0.0002777217
0.0002983757
0.0002837462
0.0002832174
0.0002685573
0.0003324757
0.0003179109
0.0003199881
0.0003054005
0.0002767558
0.0002620837
0.0002949645
0.0002803298
0.0002966366
0.0002820048
0.0002795502
0.0002648838
0.0003280413
0.0003134693
0.0003236355
0.0003090555
0.0002778965
0.0002632276
0.0002962398
0.0002816074
0.0002962661
0.0002816337
0.0002779802
0.0002633114
0.0003236534
0.0003090733
0.0003279588
0.0003133866
0.0002794966
0.0002648299
0.0002965427
0.0002819106
0.0002950157
0.000280381
0.0002769659
0.0002622951
0.0003202755
0.0003056876
0.0003324391
0.0003178733
0.0002831725
0.0002685114
0.0002984624
0.0002838322
0.0002923555
0.0002777134
0.0002753153
0.0002606389
0.0003191797
0.0003045893
0.0003533224
0.0003387907
0.0002995665
0.0002849373
0.0003207862
0.0003061989
0.0002777458
0.0002630781
0.0002568145
0.0002421012
0.000292839
0.0002782015
0.0003411086
0.0003265599
0.00035932
0.0003448009
0.0003069909
0.0002923806
0.0002757339
0.0002610621
0.0002949776
0.0002803451
0.0003390984
0.0003245459
0.0003192258
0.0003046365
0.0003732339
0.0003587364
0.0003344898
0.0003199289
0.0002947627
0.0002801282
0.0003111591
0.0002965557
0.0003187297
0.0003041402
0.0003030584
0.0002884389
0.0003521578
0.0003376276
0.0003390641
0.0003245121
0.0002965028
0.0002818725
0.0003145442
0.0002999474
0.0003164577
0.0003018615
0.0002987282
0.0002840981
0.0003466687
0.0003321264
0.0003433394
0.0003287922
0.0002980174
0.0002833876
0.0003158388
0.0003012419
0.0003158958
0.0003012989
0.0002981134
0.0002834838
0.0003433041
0.0003287569
0.0003466427
0.0003321005
0.0002986564
0.0002840286
0.0003163687
0.0003017749
0.0003145841
0.0002999874
0.0002967262
0.0002820963
0.0003392276
0.0003246759
0.000352125
0.0003375952
0.0003030081
0.0002883891
0.0003187886
0.0003041997
0.0003111572
0.0002965543
0.0002946081
0.0002799738
0.0003342293
0.0003196685
0.0003730231
0.0003585259
0.0003192956
0.0003047068
0.0003391684
0.0003246163
0.000295023
0.0002803908
0.0002757318
0.00026106
0.0003069709
0.0002923607
0.0003592865
0.000344768
0.0003771778
0.000362687
0.0003199672
0.0003053802
0.0002942989
0.0002796623
0.0003116798
0.0002970766
0.0003547466
0.0003402176
0.0003377793
0.00032322
0.0003914793
0.0003770069
0.0003494839
0.0003349458
0.0003129161
0.0002983136
0.0003286216
0.0003140474
0.0003373661
0.0003228068
0.0003201404
0.0003055498
0.0003707225
0.0003562211
0.0003587769
0.0003442573
0.0003149661
0.0003003705
0.0003325245
0.0003179597
0.000334437
0.0003198749
0.0003151129
0.0003005162
0.0003634311
0.0003489181
0.0003631417
0.0003486296
0.0003174863
0.0003028955
0.000333696
0.0003191332
0.0003337705
0.0003192078
0.0003175727
0.000302982
0.0003631114
0.0003485993
0.0003634289
0.000348916
0.0003150166
0.0003004197
0.0003343896
0.0003198275
0.0003325448
0.00031798
0.0003151096
0.0003005142
0.0003588747
0.0003443554
0.0003708056
0.0003563044
0.0003201325
0.000305542
0.0003374213
0.0003228621
0.0003286141
0.0003140398
0.0003127467
0.0002981439
0.0003492886
0.0003347502
0.000391317
0.0003768444
0.0003378303
0.000323271
0.000354836
0.000340307
0.0003117269
0.0002971236
0.0002942907
0.000279654
0.0003199374
0.0003053504
0.0003771495
0.0003626587
0.0003951182
0.0003806538
0.0003330741
0.0003185098
0.00031199
0.0002973894
0.0003280903
0.0003135193
0.000369095
0.0003545913
0.0003547559
0.0003402275
0.0004081006
0.0003936546
0.0003651174
0.0003506067
0.0003299581
0.0003153884
0.0003453617
0.0003308187
0.0003540532
0.0003395243
0.0003354318
0.0003208705
0.0003868677
0.0003723908
0.0003774743
0.0003629834
0.0003323443
0.000317779
0.000349183
0.0003346459
0.000350734
0.000336199
0.0003299856
0.0003154148
0.0003796569
0.0003651663
0.0003818258
0.0003673393
0.0003347497
0.0003201855
0.0003500385
0.0003355001
0.0003500916
0.0003355532
0.0003348445
0.0003202803
0.0003817683
0.0003672817
0.0003796173
0.0003651266
0.0003298706
0.0003152971
0.0003507182
0.0003361808
0.0003491872
0.0003346501
0.000332385
0.0003178198
0.0003775347
0.0003630439
0.0003870405
0.0003725633
0.0003354805
0.0003209188
0.0003541293
0.0003396
0.0003453578
0.0003308143
0.0003298124
0.000315242
0.0003651116
0.0003506004
0.0004078714
0.0003934247
0.0003547542
0.0003402254
0.000369217
0.0003547131
0.0003281418
0.0003135704
0.0003119756
0.0002973749
0.0003330231
0.0003184587
0.0003950823
0.0003806172
0.0004129839
0.0003985439
0.0003472519
0.000332711
0.0003292715
0.0003147012
0.000344122
0.0003295773
0.0003821802
0.0003676929
0.0003708325
0.0003563262
0.000423293
0.0004088643
0.0003801312
0.0003656398
0.0003451507
0.0003306028
0.0003612997
0.0003467791
0.0003692166
0.0003547082
0.0003495914
0.0003350503
0.0004017928
0.000387334
0.0003944852
0.0003800159
0.0003482982
0.0003337581
0.0003647443
0.0003502309
0.0003656321
0.0003511197
0.0003440642
0.0003295163
0.000395759
0.0003812935
0.0003982279
0.0003837658
0.0003498066
0.0003352683
0.0003651427
0.0003506296
0.0003651683
0.0003506552
0.0003498651
0.0003353268
0.0003981522
0.00038369
0.0003957275
0.0003812622
0.0003439158
0.0003293678
0.0003655849
0.0003510726
0.0003647391
0.0003502259
0.0003483344
0.0003337936
0.0003945176
0.0003800492
0.0004019208
0.0003874629
0.0003496129
0.0003350727
0.0003692777
0.0003547703
0.0003613045
0.000346782
0.0003449954
0.0003304455
0.0003801138
0.0003656205
0.0004231186
0.0004086879
0.0003708547
0.0003563466
0.0003823666
0.0003678781
0.0003442145
0.000329666
0.0003292984
0.0003147243
0.0003472225
0.0003326777
0.000412976
0.0003985322
0.0004303339
0.0004159157
0.0003637432
0.0003492275
0.0003460797
0.0003315363
0.0003596637
0.0003451427
0.0003941873
0.0003797184
0.0003857557
0.0003712739
0.0004370964
0.0004226878
0.0003950852
0.0003806176
0.0003582325
0.0003437076
0.0003761221
0.0003616265
0.000383141
0.0003686599
0.0003635095
0.0003489972
0.0004162822
0.0004018498
0.0004088919
0.0003944487
0.0003622598
0.0003477463
0.0003792569
0.0003647708
0.0003796295
0.0003651438
0.0003577892
0.0003432692
0.0004110674
0.0003966289
0.0004125689
0.0003981311
0.0003637239
0.0003492124
0.0003794435
0.000364957
0.0003794265
0.00036494
0.0003637421
0.0003492305
0.0004124506
0.0003980123
0.0004110949
0.0003966566
0.0003576665
0.0003431464
0.0003795594
0.0003650737
0.0003792541
0.0003647681
0.0003623961
0.0003478835
0.0004089506
0.0003945051
0.0004163542
0.0004019194
0.0003635297
0.000349015
0.0003832424
0.0003687591
0.0003760735
0.0003615796
0.0003578633
0.00034334
0.0003948368
0.0003803712
0.0004369453
0.0004225388
0.000385867
0.0003713876
0.0003943365
0.0003798709
0.0003596486
0.0003451341
0.0003460172
0.0003314803
0.00036362
0.0003491108
0.0004302128
0.0004158011
0.0004469164
0.0004325261
0.0003813376
0.0003668559
0.0003621163
0.0003476056
0.0003745949
0.0003601041
0.0004055027
0.000391057
0.0003990016
0.0003845449
0.000448634
0.0004342455
0.0004111777
0.0003967393
0.0003710776
0.0003565798
0.0003896433
0.0003751741
0.0003962512
0.0003817912
0.0003778268
0.0003633386
0.0004299169
0.0004155043
0.0004225163
0.0004080936
0.0003750776
0.0003605865
0.0003929285
0.0003784643
0.0003938842
0.000379418
0.0003728949
0.000358398
0.0004261864
0.0004117661
0.0004253596
0.0004109366
0.0003767936
0.0003623002
0.0003932511
0.0003787838
0.00039324
0.0003787726
0.0003768269
0.0003623338
0.0004252838
0.0004108609
0.0004262441
0.0004118244
0.0003726977
0.000358204
0.0003937214
0.0003792585
0.0003929308
0.0003784668
0.0003752774
0.0003607868
0.0004225781
0.0004081556
0.0004300094
0.0004155973
0.0003777768
0.0003632888
0.0003963707
0.0003819114
0.0003896072
0.0003751384
0.0003705004
0.0003560022
0.0004106652
0.0003962267
0.0004487571
0.0004343692
0.0003992432
0.0003847872
0.0004056334
0.0003911881
0.0003745911
0.0003601007
0.0003620854
0.0003475749
0.00038128
0.0003667984
0.000446838
0.0004324483
0.0004627972
0.0004484271
0.0003988536
0.0003843975
0.0003772592
0.0003627688
0.0003892765
0.0003748049
0.0004166537
0.0004022206
0.0004089738
0.0003945272
0.0004566045
0.000442222
0.0004289954
0.0004145787
0.0003883197
0.0003738466
0.0004034918
0.0003890404
0.0004085817
0.0003941364
0.0003911818
0.0003767097
0.0004408626
0.0004264638
0.0004367166
0.0004223132
0.0003911891
0.0003767239
0.0004068091
0.0003923656
0.0004086126
0.0003941713
0.0003914474
0.0003769831
0.0004401942
0.000425796
0.0004367934
0.0004223889
0.0003891248
0.0003746534
0.0004065706
0.0003921259
0.0004065938
0.0003921491
0.0003892218
0.0003747505
0.0004368191
0.0004224144
0.0004402559
0.0004258578
0.0003912659
0.0003768015
0.0004084556
0.0003940142
0.0004067833
0.0003923398
0.0003912066
0.0003767415
0.0004367633
0.0004223599
0.0004411541
0.0004267555
0.0003912251
0.0003767531
0.0004087301
0.000394285
0.000403438
0.0003889865
0.0003877434
0.0003732696
0.0004285546
0.0004141375
0.0004567787
0.0004423964
0.0004092275
0.0003947812
0.0004167825
0.0004023494
0.0003892614
0.0003747897
0.0003772204
0.0003627299
0.0003988103
0.0003843542
0.0004627314
0.0004483613
0.0004773435
0.0004629911
0.0004151722
0.0004007386
0.0003915722
0.0003771064
0.0004040741
0.0003896277
0.0004274385
0.0004130233
0.0004151358
0.0004007006
0.0004597915
0.0004454157
0.0004458432
0.0004314515
0.0004102258
0.0003957882
0.000418733
0.0004043065
0.0004192452
0.0004048174
0.000399643
0.0003851849
0.0004470649
0.0004326726
0.0004507277
0.000436342
0.0004133645
0.0003989319
0.0004219762
0.0004075539
0.0004231424
0.0004087208
0.0004111088
0.0003966718
0.0004540356
0.0004396516
0.0004471112
0.0004327169
0.000400795
0.0003863371
0.0004193434
0.0004049129
0.0004194148
0.0004049844
0.0004009635
0.0003865054
0.0004472224
0.0004328278
0.000454075
0.0004396908
0.0004110059
0.0003965656
0.0004230615
0.0004086364
0.0004219018
0.0004074793
0.0004130887
0.0003986558
0.0004508337
0.000436448
0.0004476865
0.0004332946
0.0004000138
0.0003855559
0.000419483
0.0004050551
0.0004186166
0.0004041895
0.0004097087
0.0003952701
0.0004455207
0.0004311282
0.0004599853
0.0004456092
0.0004153711
0.0004009358
0.0004275711
0.0004131556
0.0004040919
0.0003896452
0.0003915345
0.0003770686
0.0004151319
0.0004006982
0.000477284
0.0004629309
0.0004919591
0.0004776229
0.0004320017
0.0004175907
0.000407758
0.0003933156
0.0004201046
0.00040568
0.0004380523
0.0004236471
0.0004219687
0.0004075398
0.0004636158
0.0004492419
0.0004604307
0.0004460531
0.0004334091
0.0004189984
0.0004347285
0.0004203185
0.0004280005
0.0004135795
0.0004024726
0.0003880135
0.0004483313
0.0004339364
0.0004629127
0.0004485383
0.0004375804
0.0004231787
0.0004376451
0.0004232416
0.0004367399
0.0004223345
0.0004290801
0.0004146651
0.0004677444
0.0004533793
0.0004584261
0.0004440484
0.0004124731
0.0003980336
0.0004315891
0.0004171766
0.0004317614
0.0004173492
0.000412783
0.0003983438
0.0004585967
0.0004442192
0.000467726
0.0004533609
0.0004289731
0.0004145582
0.0004366766
0.0004222712
0.0004375492
0.0004231456
0.0004371367
0.000422734
0.0004631552
0.0004487835
0.0004491805
0.0004347889
0.0004030108
0.0003885548
0.000428294
0.0004138758
0.0004346337
0.0004202219
0.0004329797
0.0004185662
0.0004602151
0.0004458351
0.0004638583
0.0004494823
0.0004222354
0.0004078046
0.0004382176
0.0004238094
0.0004201944
0.0004057633
0.0004077974
0.0003933486
0.0004320268
0.0004176094
0.000491975
0.0004776324
0.0005066639
0.0004923413
0.0004504648
0.0004360752
0.0004266752
0.0004122564
0.0004358426
0.0004214359
0.0004489029
0.0004345125
0.0004330292
0.0004186186
0.0004736068
0.0004592483
0.0004744442
0.0004600851
0.000453601
0.0004392164
0.0004490391
0.0004346493
0.000435612
0.0004212074
0.0004056927
0.0003912458
0.000453023
0.0004386421
0.0004752795
0.0004609268
0.0004580607
0.000443685
0.0004513741
0.0004369896
0.0004486372
0.0004342486
0.0004438352
0.0004294402
0.0004815424
0.0004671959
0.000471396
0.0004570374
0.0004250781
0.0004106582
0.0004430321
0.0004286362
0.0004432675
0.0004288719
0.000425533
0.0004111134
0.0004715865
0.000457227
0.0004814938
0.0004671466
0.0004438007
0.0004294054
0.0004486402
0.0004342512
0.0004512909
0.0004369058
0.0004576203
0.0004432435
0.0004756596
0.000461304
0.0004539813
0.000439598
0.0004063264
0.0003918768
0.0004359889
0.0004215814
0.0004490065
0.0004346168
0.0004532554
0.000438871
0.0004742355
0.0004598766
0.0004738517
0.0004594938
0.0004332995
0.0004188895
0.0004490379
0.0004346491
0.0004358415
0.0004214388
0.0004266203
0.0004122055
0.0004503786
0.000435993
0.0005065801
0.0004922616
0.0005212718
0.0005069695
0.0004702432
0.0004558821
0.0004476899
0.0004333026
0.0004516112
0.0004372287
0.0004620588
0.0004476894
0.0004488933
0.0004345082
0.000486833
0.0004724934
0.0004881989
0.000473859
0.00047161
0.0004572495
0.0004640563
0.0004496882
0.0004472308
0.0004328424
0.0004200973
0.0004056757
0.0004675978
0.0004532364
0.0004902944
0.000475958
0.0004728728
0.0004585126
0.0004643923
0.000450023
0.0004616404
0.0004472654
0.0004575792
0.000443198
0.0004939172
0.0004795816
0.0004856016
0.0004712571
0.000440707
0.0004263072
0.0004553754
0.0004409938
0.0004557045
0.0004413233
0.0004410209
0.0004266214
0.0004857359
0.0004713916
0.0004939623
0.0004796271
0.0004575303
0.0004431523
0.0004616229
0.0004472507
0.0004642971
0.000449928
0.0004723964
0.0004580361
0.0004906362
0.0004763003
0.0004685117
0.0004541513
0.0004207013
0.0004062803
0.0004475633
0.0004331754
0.0004639717
0.0004496038
0.0004713091
0.0004569486
0.0004880062
0.0004736664
0.0004870908
0.0004727516
0.0004491942
0.0004348095
0.0004622155
0.0004478464
0.0004516099
0.0004372274
0.0004476431
0.0004332558
0.0004701728
0.0004558118
0.0005212054
0.0005069032
0.0005373121
0.0005230271
0.0004909313
0.0004765946
0.0004686921
0.0004543279
0.0004670867
0.0004527208
0.0004757828
0.0004614281
0.0004684763
0.0004541139
0.0005016641
0.0004873393
0.0005030682
0.0004887432
0.0004877147
0.0004733705
0.0004784635
0.0004641101
0.000462729
0.0004483588
0.0004470113
0.0004326258
0.0004859196
0.00047158
0.0005025591
0.0004882344
0.0004839339
0.0004695856
0.0004767729
0.0004624179
0.0004749288
0.0004605727
0.0004718742
0.0004575134
0.0005068449
0.0004925261
0.0005005967
0.0004862723
0.0004585017
0.0004441285
0.0004682715
0.0004539089
0.0004685087
0.0004541462
0.000458587
0.0004442134
0.0005006472
0.0004863227
0.0005070327
0.0004927143
0.0004719066
0.0004575463
0.0004749448
0.0004605889
0.0004765776
0.0004622227
0.0004834602
0.0004691119
0.0005028152
0.0004884908
0.0004867547
0.0004724158
0.0004475623
0.0004331771
0.0004630149
0.000448645
0.0004785217
0.0004641681
0.0004875489
0.0004732043
0.0005029015
0.0004885763
0.0005019342
0.0004876096
0.0004688377
0.0004544755
0.0004760105
0.0004616558
0.0004670607
0.0004526947
0.0004685168
0.0004541526
0.0004908306
0.0004764939
0.0005372355
0.0005229505
0.0005541916
0.0005399242
0.0005100357
0.0004957202
0.0004929773
0.0004786445
0.000487044
0.0004727043
0.000494021
0.0004796905
0.000491039
0.0004767068
0.000516511
0.0005022055
0.000517964
0.0005036578
0.0005068508
0.0004925306
0.0004969317
0.0004826022
0.0004847288
0.0004703885
0.0004803115
0.0004659693
0.0005027112
0.0004883899
0.000509995
0.0004956778
0.0004960311
0.0004816966
0.0004925985
0.0004782623
0.0004931375
0.0004788031
0.0004909766
0.0004766382
0.0005181228
0.0005038135
0.0005144854
0.0005001737
0.0004830999
0.0004687549
0.0004866243
0.000472282
0.0004868035
0.0004724613
0.0004831028
0.0004687568
0.0005145532
0.0005002411
0.0005184468
0.0005041379
0.0004911289
0.0004767888
0.0004931781
0.0004788412
0.0004924397
0.0004781036
0.0004956183
0.0004812834
0.0005102631
0.000495946
0.0005034507
0.0004891297
0.0004808327
0.0004664903
0.000484955
0.0004706146
0.0004970071
0.0004826773
0.0005065807
0.00049226
0.0005178611
0.0005035546
0.0005167485
0.0005024429
0.000491629
0.0004772972
0.000494119
0.0004797887
0.0004868701
0.0004725303
0.0004927641
0.0004784313
0.0005099404
0.0004956251
0.000554092
0.0005398245
0.0005732792
0.000559031
0.0005362511
0.0005219642
0.0005228185
0.0005085195
0.0005119451
0.0004976339
0.0005175088
0.0005032024
0.0005195675
0.0005052656
0.000535046
0.0005207578
0.0005349708
0.00052068
0.0005307654
0.0005164676
0.0005199635
0.0005056554
0.0005133875
0.0004990769
0.0005164985
0.0005021931
0.0005207341
0.0005064291
0.0005239201
0.0005096158
0.0005152131
0.0005008995
0.0005119678
0.0004976532
0.0005145338
0.000500222
0.0005146752
0.0005003624
0.0005337479
0.0005194572
0.000532518
0.0005182273
0.0005156288
0.0005013232
0.0005115439
0.0004972325
0.000511544
0.0004972324
0.0005155797
0.000501273
0.0005325491
0.0005182592
0.0005341876
0.0005198983
0.000515005
0.0005006942
0.0005146345
0.0005003241
0.0005116551
0.0004973409
0.0005145305
0.0005002178
0.0005239369
0.0005096361
0.0005213266
0.0005070253
0.0005168655
0.0005025637
0.0005138669
0.0004995594
0.00051937
0.0005050619
0.0005301415
0.0005158432
0.0005349646
0.0005206735
0.0005353198
0.0005210312
0.000520298
0.000505996
0.0005174835
0.0005031762
0.0005120488
0.0004977336
0.0005228794
0.0005085766
0.0005362148
0.0005219241
0.0005732202
0.000558968
0.0005938405
0.0005796088
0.000559978
0.0005457115
0.0005564664
0.0005421992
0.0005439122
0.0005296319
0.0005470555
0.0005327798
0.00055629
0.0005420278
0.0005486309
0.0005343563
0.0005437773
0.0005294947
0.0005537724
0.0005394992
0.0005467268
0.0005324472
0.000547204
0.0005329315
0.0005556549
0.0005413934
0.0005339677
0.0005196785
0.0005315152
0.0005172223
0.0005386858
0.0005243995
0.000537852
0.0005235661
0.0005404481
0.000526164
0.0005406035
0.0005263183
0.0005415247
0.0005272414
0.0005460582
0.0005317812
0.0005531004
0.0005388342
0.0005442103
0.0005299337
0.0005439989
0.0005297219
0.0005527321
0.0005384648
0.000546394
0.0005321162
0.0005423232
0.0005280402
0.0005414248
0.0005271405
0.0005407634
0.0005264793
0.0005378094
0.0005235219
0.0005380684
0.0005237809
0.0005315982
0.000517302
0.0005346556
0.0005203637
0.0005561454
0.000541881
0.0005471366
0.0005328604
0.0005456172
0.0005313363
0.0005528644
0.0005385902
0.0005438929
0.0005296099
0.0005489586
0.0005346834
0.0005571344
0.0005428718
0.0005470904
0.0005328156
0.000544019
0.0005297414
0.0005568108
0.0005425461
0.0005599729
0.0005457089
0.0005937496
0.0005795205
0.0006079703
0.0005937538
0.0005998437
0.0005856194
0.000625639
0.0006114444
0.0006214104
0.0006072116
0.0006219616
0.0006077648
0.0006023171
0.0005881024
0.0005545117
0.0005402421
0.0005553014
0.0005410323
0.0005997483
0.0005855268
0.0006159295
0.0006017226
0.0006234103
0.0006092134
0.000596361
0.0005821395
0.0005402088
0.0005259234
0.0005449763
0.0005306958
0.000590075
0.0005758444
0.0006072721
0.0005930573
0.0006096785
0.0005954627
0.0005970218
0.0005827954
0.0005513935
0.0005371181
0.0005546221
0.0005403495
0.0005997891
0.0005855682
0.0006177032
0.0006034995
0.000617065
0.0006028606
0.0005997488
0.0005855279
0.000555093
0.0005408213
0.0005523501
0.0005380762
0.000597913
0.0005836905
0.0006102831
0.0005960707
0.0006070427
0.0005928276
0.000589729
0.0005754985
0.0005450091
0.0005307289
0.0005407348
0.0005264502
0.0005968431
0.0005826225
0.0006230005
0.0006088036
0.0006147994
0.0006005926
0.0005993335
0.0005851124
0.0005553815
0.0005411129
0.0005547364
0.0005404671
0.000602778
0.0005885634
0.0006220692
0.0006078725
0.0006216184
0.0006074195
0.0006259024
0.0006117075
0.0005998467
0.0005856221
0.0006079247
0.000593708
0.0003276509
0.0002882257
0.0002514617
0.0002182798
0.0001890588
0.0001637472
0.0001420243
0.0001234813
0.0001077163
9.437931e-05
8.317742e-05
7.38451e-05
6.613344e-05
5.979558e-05
5.462934e-05
5.057247e-05
4.762911e-05
4.577577e-05
4.487485e-05
4.463585e-05
0.0003507887
0.0003119969
0.0002761564
0.0002436234
0.0002142999
0.0001879502
0.0001643145
0.0001431924
0.0001244841
0.0001081672
9.423609e-05
8.264352e-05
7.330962e-05
6.602261e-05
6.040159e-05
5.624872e-05
5.336745e-05
5.156766e-05
5.06421e-05
5.033929e-05
0.0003862864
0.0003495719
0.0003169767
0.0002857801
0.0002553333
0.0002252014
0.0001949396
0.0001641559
0.0001325792
0.0001017682
7.550836e-05
5.431047e-05
3.791889e-05
2.552684e-05
1.649777e-05
1.021803e-05
6.027376e-06
3.301404e-06
1.570334e-06
5.453956e-07
0.0003972792
0.0003603526
0.0003266614
0.0002926021
0.0002567324
0.0002183398
0.0001768858
0.0001350495
9.602078e-05
6.266101e-05
3.723257e-05
2.01263e-05
9.94721e-06
4.486567e-06
1.858988e-06
7.17285e-07
2.61084e-07
8.940915e-08
2.775409e-08
7.245988e-09
0.0003788453
0.0003410465
0.0003048945
0.0002673365
0.0002275369
0.0001849653
0.0001418985
0.0001009017
6.506592e-05
3.709068e-05
1.82571e-05
7.667745e-06
2.759087e-06
8.675772e-07
2.463803e-07
6.575289e-08
1.703863e-08
4.296404e-09
1.066837e-09
2.86336e-10
0.0003676105
0.0003309349
0.0002980966
0.0002659012
0.0002314507
0.0001940424
0.0001535406
0.0001125653
7.654426e-05
4.82535e-05
2.869342e-05
1.677834e-05
1.018506e-05
6.630703e-06
4.570712e-06
3.196599e-06
2.166757e-06
1.361636e-06
7.404989e-07
2.944243e-07
0.0003270418
0.0002892305
0.0002561378
0.0002280103
0.0002043329
0.0001843594
0.0001673888
0.0001528668
0.0001403716
0.0001295514
0.0001201976
0.0001121661
0.0001053022
9.943495e-05
9.438691e-05
9.002683e-05
8.633639e-05
8.345075e-05
8.157349e-05
8.080225e-05
0.0003245544
0.0002870987
0.0002547253
0.0002274817
0.0002046609
0.0001854263
0.0001690952
0.0001552255
0.000143485
0.0001336163
0.0001253957
0.0001186229
0.0001130706
0.0001084445
0.0001044442
0.0001008705
9.772702e-05
9.518286e-05
9.346957e-05
9.272875e-05
0.0003579865
0.0003224792
0.0002926379
0.0002654318
0.0002361961
0.0002040038
0.0001683132
0.0001297661
9.514665e-05
6.705638e-05
4.610791e-05
3.139351e-05
2.144269e-05
1.478269e-05
1.022958e-05
6.984304e-06
4.581467e-06
2.780619e-06
1.45848e-06
5.582572e-07
0.0003163837
0.0002783949
0.0002422993
0.000205001
0.0001658521
0.0001271306
9.100251e-05
5.988963e-05
3.590656e-05
1.962604e-05
9.860639e-06
4.629336e-06
2.084371e-06
9.261239e-07
4.13589e-07
1.850255e-07
8.084398e-08
3.30326e-08
1.187814e-08
3.482933e-09
0.0003136176
0.0002758791
0.0002406416
0.0002040791
0.0001654819
0.0001258708
8.848044e-05
5.63332e-05
3.199684e-05
1.613138e-05
7.27217e-06
3.011405e-06
1.19918e-06
4.839116e-07
2.04399e-07
8.955551e-08
3.894817e-08
1.585543e-08
5.636835e-09
1.575267e-09
0.0003337141
0.000297748
0.0002670429
0.0002389281
0.0002088883
0.0001756635
0.0001389092
0.0001014013
6.933454e-05
4.512624e-05
2.873397e-05
1.851686e-05
1.239256e-05
8.639155e-06
6.151898e-06
4.339984e-06
2.935445e-06
1.83017e-06
9.823639e-07
3.796953e-07
0.0003040839
0.000266451
0.0002338698
0.0002064792
0.0001836424
0.0001645416
0.0001484661
0.0001348912
0.0001234157
0.0001137158
0.0001055305
9.869907e-05
9.303787e-05
8.832934e-05
8.432657e-05
8.083544e-05
7.780472e-05
7.535955e-05
7.371882e-05
7.302211e-05
0.0003088521
0.0002712823
0.0002387762
0.0002114191
0.0001885342
0.0001693024
0.0001530378
0.0001392606
0.0001275996
0.0001177526
0.000109431
0.0001024379
9.656302e-05
9.155836e-05
8.718503e-05
8.329783e-05
7.993075e-05
7.726171e-05
7.551351e-05
7.47899e-05
0.0003419975
0.0003062051
0.0002757217
0.0002475656
0.0002171138
0.0001834931
0.0001464039
0.0001085127
7.596549e-05
5.101221e-05
3.354015e-05
2.207952e-05
1.481508e-05
1.018755e-05
7.103314e-06
4.908662e-06
3.265192e-06
2.01291e-06
1.075087e-06
4.178825e-07
0.0003047101
0.0002665311
0.0002301062
0.0001925226
0.000153342
0.0001150243
7.993973e-05
5.063043e-05
2.894555e-05
1.495912e-05
7.057075e-06
3.1148e-06
1.333785e-06
5.750918e-07
2.54694e-07
1.147561e-07
5.085169e-08
2.110803e-08
7.695595e-09
2.232305e-09
0.0003080887
0.0002701891
0.0002345482