/*--------------------------------*- C++ -*----------------------------------*\
| =========                 |                                                 |
| \\      /  F ield         | OpenFOAM: The Open Source CFD Toolbox           |
|  \\    /   O peration     | Version:  4.0                                   |
|   \\  /    A nd           | Web:      www.OpenFOAM.org                      |
|    \\/     M anipulation  |                                                 |
\*---------------------------------------------------------------------------*/
FoamFile
{
    version     2.0;
    format      ascii;
    class       volScalarField;
    location    "60/fuel";
    object      YH2Ofuel;
}
// * * * * * * * * * * * * * * * * * * * * * * * * * * * * * * * * * * * * * //

dimensions      [0 0 0 0 0 0 0];

internalField   nonuniform List<scalar> 
39776
(
0.09993136
0.09993217
0.0999577
0.09995852
0.09997436
0.0999752
0.09997556
0.0999764
0.09997511
0.09997595
0.09997399
0.09997482
0.09995719
0.099958
0.09995845
0.09995927
0.09997414
0.09997497
0.09997512
0.09997595
0.09997513
0.09997596
0.09997411
0.09997494
0.09995794
0.09995875
0.0999583
0.09995912
0.09997416
0.09997499
0.09997516
0.09997599
0.09997514
0.09997597
0.09997415
0.09997498
0.09995813
0.09995895
0.09995825
0.09995906
0.09997417
0.099975
0.09997514
0.09997597
0.09997514
0.09997597
0.09997417
0.099975
0.09995825
0.09995906
0.0999581
0.09995891
0.09997413
0.09997496
0.09997512
0.09997595
0.09997514
0.09997598
0.09997416
0.09997499
0.09995823
0.09995905
0.09995785
0.09995867
0.09997406
0.09997489
0.09997508
0.09997592
0.09997514
0.09997597
0.09997416
0.09997499
0.09995849
0.0999593
0.09995723
0.09995804
0.09997402
0.09997485
0.09997518
0.09997601
0.09997569
0.09997653
0.0999745
0.09997533
0.09995793
0.09995875
0.09993175
0.09993254
0.09993035
0.09993115
0.09995267
0.09995348
0.0999692
0.09997002
0.09997092
0.09997175
0.0999704
0.09997123
0.09996824
0.09996906
0.09995083
0.09995164
0.09995251
0.09995331
0.09996861
0.09996943
0.09997044
0.09997126
0.09997037
0.0999712
0.09996837
0.0999692
0.09995151
0.09995232
0.09995216
0.09995297
0.09996852
0.09996934
0.0999704
0.09997122
0.09997032
0.09997115
0.09996839
0.09996922
0.09995173
0.09995254
0.0999519
0.09995271
0.09996842
0.09996925
0.09997032
0.09997115
0.09997032
0.09997115
0.09996843
0.09996925
0.09995189
0.09995271
0.09995172
0.09995254
0.09996843
0.09996925
0.09997036
0.09997119
0.09997039
0.09997122
0.09996852
0.09996934
0.09995214
0.09995295
0.09995151
0.09995232
0.09996837
0.0999692
0.09997036
0.09997118
0.09997044
0.09997127
0.09996862
0.09996944
0.09995252
0.09995333
0.09995085
0.09995166
0.09996825
0.09996907
0.09997042
0.09997125
0.09997096
0.09997179
0.09996923
0.09997005
0.09995274
0.09995355
0.09993051
0.09993131
0.09992236
0.09992315
0.09994427
0.09994508
0.09996363
0.09996445
0.09996639
0.09996722
0.09996579
0.09996661
0.09996244
0.09996326
0.09994361
0.09994442
0.09994558
0.09994639
0.09996307
0.09996389
0.09996592
0.09996674
0.09996579
0.09996662
0.09996268
0.0999635
0.09994439
0.09994519
0.09994523
0.09994604
0.09996298
0.0999638
0.09996592
0.09996674
0.09996586
0.09996668
0.09996284
0.09996366
0.09994475
0.09994555
0.09994496
0.09994577
0.0999629
0.09996372
0.09996589
0.09996671
0.09996589
0.09996671
0.09996291
0.09996372
0.09994496
0.09994576
0.09994475
0.09994555
0.09996285
0.09996367
0.09996586
0.09996669
0.09996592
0.09996674
0.09996298
0.0999638
0.09994522
0.09994602
0.09994437
0.09994518
0.09996268
0.0999635
0.09996579
0.09996661
0.09996592
0.09996674
0.09996308
0.0999639
0.09994559
0.0999464
0.09994362
0.09994443
0.09996245
0.09996327
0.0999658
0.09996662
0.09996642
0.09996724
0.09996366
0.09996448
0.09994435
0.09994516
0.09992249
0.09992328
0.09991186
0.09991265
0.09993308
0.09993388
0.0999573
0.09995811
0.09996195
0.09996277
0.09996138
0.0999622
0.09995626
0.09995707
0.09993617
0.09993697
0.09993766
0.09993846
0.09995739
0.0999582
0.09996162
0.09996244
0.09996142
0.09996223
0.09995663
0.09995744
0.09993678
0.09993758
0.0999374
0.0999382
0.09995713
0.09995794
0.09996155
0.09996237
0.09996146
0.09996228
0.09995681
0.09995763
0.09993698
0.09993778
0.09993714
0.09993794
0.09995692
0.09995773
0.09996146
0.09996228
0.09996146
0.09996228
0.09995692
0.09995773
0.09993714
0.09993794
0.09993697
0.09993778
0.09995677
0.09995758
0.09996142
0.09996223
0.09996155
0.09996236
0.09995713
0.09995794
0.09993738
0.09993818
0.09993674
0.09993754
0.0999566
0.09995742
0.09996141
0.09996223
0.09996162
0.09996244
0.09995739
0.0999582
0.09993767
0.09993847
0.09993618
0.09993698
0.09995626
0.09995708
0.09996139
0.09996221
0.09996197
0.09996279
0.09995736
0.09995817
0.09993318
0.09993398
0.09991198
0.09991277
0.09990125
0.09990204
0.09992217
0.09992297
0.09995129
0.0999521
0.09995789
0.0999587
0.09995735
0.09995817
0.09995079
0.0999516
0.09992867
0.09992947
0.09992981
0.09993061
0.09995231
0.09995312
0.09995774
0.09995856
0.09995744
0.09995826
0.09995124
0.09995205
0.09992915
0.09992995
0.09992966
0.09993046
0.09995209
0.0999529
0.09995773
0.09995854
0.09995761
0.09995842
0.0999517
0.09995251
0.09992945
0.09993024
0.09992957
0.09993037
0.09995174
0.09995255
0.09995762
0.09995843
0.09995762
0.09995843
0.09995174
0.09995255
0.09992957
0.09993036
0.09992946
0.09993026
0.0999517
0.09995251
0.09995762
0.09995843
0.09995774
0.09995855
0.09995208
0.09995289
0.0999297
0.0999305
0.09992919
0.09992999
0.09995128
0.09995209
0.09995748
0.0999583
0.09995773
0.09995854
0.0999523
0.09995311
0.0999298
0.0999306
0.09992865
0.09992945
0.09995077
0.09995158
0.0999573
0.09995812
0.0999578
0.09995862
0.09995122
0.09995203
0.09992212
0.09992292
0.09990122
0.09990201
0.09989037
0.09989116
0.09991151
0.0999123
0.0999452
0.09994601
0.099954
0.09995482
0.09995368
0.0999545
0.09994581
0.09994662
0.09992147
0.09992227
0.09992248
0.09992327
0.09994803
0.09994884
0.09995443
0.09995524
0.09995409
0.0999549
0.0999467
0.09994751
0.09992199
0.09992278
0.0999224
0.0999232
0.09994755
0.09994836
0.09995438
0.09995519
0.09995426
0.09995508
0.0999472
0.09994801
0.09992226
0.09992306
0.09992232
0.09992311
0.09994712
0.09994793
0.09995421
0.09995502
0.09995421
0.09995502
0.09994712
0.09994793
0.09992232
0.09992311
0.09992225
0.09992304
0.09994719
0.09994799
0.09995425
0.09995506
0.09995437
0.09995518
0.09994755
0.09994836
0.09992237
0.09992317
0.09992195
0.09992274
0.09994668
0.09994749
0.09995406
0.09995487
0.09995444
0.09995526
0.09994805
0.09994886
0.09992251
0.0999233
0.09992149
0.09992229
0.09994583
0.09994664
0.09995373
0.09995455
0.0999541
0.09995491
0.09994532
0.09994612
0.09991167
0.09991246
0.09989055
0.09989133
0.09987963
0.09988041
0.09990182
0.09990261
0.09994029
0.09994109
0.09995086
0.09995167
0.09995069
0.0999515
0.09994173
0.09994253
0.09991489
0.09991569
0.09991613
0.09991692
0.09994439
0.09994519
0.09995171
0.09995252
0.09995128
0.09995209
0.09994296
0.09994377
0.09991533
0.09991612
0.09991566
0.09991646
0.09994364
0.09994444
0.09995148
0.09995229
0.09995135
0.09995216
0.0999433
0.09994411
0.09991551
0.0999163
0.09991553
0.09991632
0.09994326
0.09994406
0.09995129
0.0999521
0.09995129
0.0999521
0.09994325
0.09994406
0.09991553
0.09991632
0.0999155
0.09991629
0.09994333
0.09994414
0.09995138
0.09995219
0.09995148
0.09995229
0.09994363
0.09994444
0.09991566
0.09991645
0.09991533
0.09991612
0.09994298
0.09994378
0.09995128
0.09995209
0.09995172
0.09995252
0.09994441
0.09994521
0.09991615
0.09991694
0.0999149
0.0999157
0.09994173
0.09994254
0.09995071
0.09995152
0.0999509
0.09995171
0.09994034
0.09994114
0.09990191
0.0999027
0.09987975
0.09988053
0.09986901
0.09986979
0.09989282
0.0998936
0.09993599
0.09993679
0.09994806
0.09994887
0.0999481
0.09994891
0.09993842
0.09993923
0.09990875
0.09990954
0.09990982
0.09991061
0.09994085
0.09994166
0.09994914
0.09994995
0.09994874
0.09994955
0.09993955
0.09994035
0.09990925
0.09991004
0.09990953
0.09991031
0.09994024
0.09994104
0.09994898
0.09994979
0.09994888
0.09994969
0.09993994
0.09994074
0.09990945
0.09991024
0.09990947
0.09991026
0.09994001
0.09994081
0.09994887
0.09994967
0.09994887
0.09994968
0.09994001
0.09994081
0.09990947
0.09991026
0.09990944
0.09991023
0.09993995
0.09994075
0.09994889
0.0999497
0.09994898
0.09994979
0.09994023
0.09994103
0.09990952
0.09991031
0.09990924
0.09991003
0.09993955
0.09994036
0.09994874
0.09994955
0.09994915
0.09994996
0.09994087
0.09994168
0.09990984
0.09991063
0.09990875
0.09990954
0.09993842
0.09993922
0.09994812
0.09994892
0.09994809
0.0999489
0.09993604
0.09993684
0.09989292
0.0998937
0.09986913
0.0998699
0.09985878
0.09985955
0.09988454
0.09988533
0.09993227
0.09993307
0.09994567
0.09994648
0.09994593
0.09994673
0.09993564
0.09993644
0.09990329
0.09990408
0.0999042
0.09990499
0.09993769
0.09993849
0.0999469
0.09994771
0.09994657
0.09994738
0.09993675
0.09993755
0.09990381
0.0999046
0.09990395
0.09990474
0.09993702
0.09993782
0.09994669
0.09994749
0.09994662
0.09994742
0.09993672
0.09993752
0.09990388
0.09990467
0.09990408
0.09990487
0.09993711
0.09993791
0.09994666
0.09994747
0.09994666
0.09994747
0.09993711
0.09993791
0.09990407
0.09990486
0.09990387
0.09990466
0.09993668
0.09993749
0.09994658
0.09994739
0.09994668
0.09994749
0.09993701
0.09993781
0.09990395
0.09990474
0.09990378
0.09990457
0.09993675
0.09993755
0.09994658
0.09994739
0.09994692
0.09994772
0.09993772
0.09993853
0.09990422
0.09990501
0.09990329
0.09990408
0.09993562
0.09993642
0.09994593
0.09994674
0.09994569
0.09994649
0.09993233
0.09993313
0.09988466
0.09988544
0.09985889
0.09985966
0.09984904
0.09984981
0.09987688
0.09987766
0.09992884
0.09992963
0.09994346
0.09994426
0.09994388
0.09994469
0.09993309
0.09993389
0.09989829
0.09989908
0.09989903
0.09989981
0.09993471
0.09993551
0.09994477
0.09994558
0.09994457
0.09994538
0.09993422
0.09993503
0.09989939
0.09990017
0.09989892
0.09989971
0.09993372
0.09993453
0.09994448
0.09994529
0.0999445
0.0999453
0.09993377
0.09993457
0.09989896
0.09989974
0.09989934
0.09990013
0.09993446
0.09993526
0.09994471
0.09994551
0.0999447
0.09994551
0.09993446
0.09993526
0.09989933
0.09990012
0.09989896
0.09989975
0.09993378
0.09993458
0.0999445
0.09994531
0.09994449
0.0999453
0.09993371
0.09993451
0.09989896
0.09989974
0.09989944
0.09990022
0.09993427
0.09993507
0.09994461
0.09994542
0.09994477
0.09994558
0.09993472
0.09993552
0.09989902
0.09989981
0.09989827
0.09989905
0.09993305
0.09993386
0.09994383
0.09994464
0.09994338
0.09994419
0.09992878
0.09992958
0.09987686
0.09987764
0.09984901
0.09984978
0.09983966
0.09984043
0.09986958
0.09987036
0.09992543
0.09992623
0.09994127
0.09994208
0.09994194
0.09994275
0.09993072
0.09993152
0.09989381
0.0998946
0.09989435
0.09989513
0.09993186
0.09993266
0.09994281
0.09994362
0.09994279
0.0999436
0.09993198
0.09993278
0.09989569
0.09989648
0.09989448
0.09989527
0.09993054
0.09993134
0.09994237
0.09994317
0.09994254
0.09994335
0.09993125
0.09993205
0.09989447
0.09989526
0.09989473
0.09989552
0.09993163
0.09993243
0.0999427
0.09994351
0.0999427
0.09994351
0.09993163
0.09993243
0.09989472
0.09989551
0.09989445
0.09989524
0.09993124
0.09993204
0.09994253
0.09994333
0.09994235
0.09994316
0.09993053
0.09993133
0.09989446
0.09989525
0.09989568
0.09989647
0.09993196
0.09993276
0.09994278
0.09994358
0.09994284
0.09994365
0.0999319
0.0999327
0.09989439
0.09989518
0.09989385
0.09989464
0.09993074
0.09993154
0.09994199
0.0999428
0.09994136
0.09994217
0.09992555
0.09992635
0.09986976
0.09987053
0.09983984
0.09984061
0.09983103
0.0998318
0.0998629
0.09986368
0.09992228
0.09992308
0.09993936
0.09994016
0.09994028
0.09994108
0.09992856
0.09992936
0.09988991
0.09989069
0.09989027
0.09989105
0.09992934
0.09993014
0.09994111
0.09994191
0.09994118
0.09994198
0.09992995
0.09993075
0.09989258
0.09989337
0.09989058
0.09989136
0.09992765
0.09992845
0.09994039
0.09994119
0.09994074
0.09994155
0.09992904
0.09992984
0.09989065
0.09989143
0.09989049
0.09989127
0.09992871
0.09992951
0.09994069
0.0999415
0.09994069
0.0999415
0.09992871
0.09992951
0.09989048
0.09989127
0.09989064
0.09989142
0.09992907
0.09992987
0.09994077
0.09994157
0.09994038
0.09994118
0.09992764
0.09992844
0.09989058
0.09989136
0.09989261
0.09989339
0.09992996
0.09993076
0.09994118
0.09994198
0.09994112
0.09994192
0.09992937
0.09993016
0.0998903
0.09989108
0.09988993
0.09989071
0.09992856
0.09992936
0.09994029
0.0999411
0.0999394
0.09994021
0.09992234
0.09992313
0.099863
0.09986378
0.09983115
0.09983192
0.09982284
0.0998236
0.09985657
0.09985734
0.09991922
0.09992002
0.09993748
0.09993828
0.09993863
0.09993943
0.09992654
0.09992734
0.09988672
0.0998875
0.09988653
0.09988731
0.09992672
0.09992751
0.09993934
0.09994015
0.09993958
0.09994038
0.09992797
0.09992876
0.09988958
0.09989036
0.09988708
0.09988786
0.0999252
0.09992599
0.0999386
0.0999394
0.09993916
0.09993996
0.09992712
0.09992792
0.0998876
0.09988838
0.0998868
0.09988758
0.09992614
0.09992693
0.09993892
0.09993973
0.09993893
0.09993973
0.09992614
0.09992693
0.0998868
0.09988758
0.09988759
0.09988837
0.09992712
0.09992792
0.09993916
0.09993997
0.09993859
0.0999394
0.09992519
0.09992598
0.09988709
0.09988787
0.0998896
0.09989038
0.09992797
0.09992877
0.09993958
0.09994038
0.09993935
0.09994016
0.09992674
0.09992754
0.09988655
0.09988734
0.09988673
0.09988752
0.09992655
0.09992734
0.09993864
0.09993944
0.09993752
0.09993832
0.09991929
0.09992009
0.09985668
0.09985745
0.09982296
0.09982372
0.09981511
0.09981587
0.09985055
0.09985132
0.09991628
0.09991708
0.09993572
0.09993652
0.09993715
0.09993795
0.09992483
0.09992563
0.09988429
0.09988507
0.0998833
0.09988408
0.09992405
0.09992484
0.09993763
0.09993843
0.09993808
0.09993888
0.09992606
0.09992686
0.09988643
0.09988721
0.09988386
0.09988464
0.09992302
0.09992382
0.09993696
0.09993776
0.09993764
0.09993845
0.09992526
0.09992605
0.09988476
0.09988554
0.09988343
0.09988421
0.09992365
0.09992445
0.09993716
0.09993797
0.09993717
0.09993797
0.09992366
0.09992445
0.09988342
0.09988421
0.09988475
0.09988553
0.09992522
0.09992601
0.09993761
0.09993841
0.09993695
0.09993775
0.09992301
0.09992381
0.09988387
0.09988465
0.09988643
0.09988722
0.09992605
0.09992685
0.09993808
0.09993888
0.09993764
0.09993844
0.09992408
0.09992488
0.09988332
0.0998841
0.09988427
0.09988505
0.09992482
0.09992562
0.09993716
0.09993796
0.09993575
0.09993655
0.09991636
0.09991715
0.09985067
0.09985144
0.09981522
0.09981599
0.09980783
0.09980859
0.099845
0.09984577
0.09991372
0.09991452
0.09993405
0.09993485
0.09993572
0.09993652
0.09992328
0.09992408
0.09988245
0.09988323
0.0998804
0.09988119
0.09992146
0.09992226
0.09993583
0.09993663
0.09993652
0.09993732
0.09992413
0.09992492
0.09988323
0.09988402
0.09988083
0.09988161
0.09992117
0.09992197
0.09993546
0.09993626
0.09993621
0.09993701
0.09992352
0.09992432
0.09988229
0.09988307
0.0998805
0.09988128
0.09992147
0.09992227
0.09993555
0.09993635
0.09993555
0.09993635
0.09992148
0.09992227
0.0998805
0.09988128
0.0998823
0.09988308
0.09992352
0.09992431
0.0999362
0.09993701
0.09993546
0.09993626
0.09992116
0.09992196
0.09988087
0.09988165
0.09988329
0.09988407
0.09992416
0.09992495
0.09993655
0.09993735
0.09993582
0.09993662
0.09992147
0.09992227
0.09988038
0.09988117
0.09988238
0.09988316
0.09992324
0.09992404
0.09993566
0.09993647
0.09993398
0.09993479
0.09991368
0.09991448
0.09984498
0.09984576
0.0998078
0.09980857
0.0998008
0.09980157
0.09983946
0.09984023
0.09991077
0.09991156
0.09993224
0.09993305
0.09993425
0.09993506
0.09992182
0.09992262
0.09988088
0.09988166
0.09987782
0.09987861
0.09991879
0.09991958
0.09993398
0.09993478
0.09993497
0.09993577
0.09992225
0.09992304
0.09988011
0.09988089
0.09987799
0.09987878
0.09991925
0.09992004
0.09993393
0.09993473
0.09993473
0.09993553
0.09992175
0.09992255
0.09987968
0.09988046
0.09987771
0.09987849
0.09991922
0.09992002
0.09993384
0.09993464
0.09993384
0.09993464
0.09991923
0.09992002
0.09987771
0.09987849
0.09987966
0.09988044
0.09992173
0.09992253
0.09993471
0.09993551
0.09993391
0.09993472
0.09991925
0.09992004
0.09987799
0.09987877
0.09988011
0.09988089
0.09992223
0.09992303
0.09993496
0.09993576
0.09993402
0.09993482
0.09991884
0.09991964
0.09987786
0.09987864
0.09988089
0.09988167
0.09992184
0.09992263
0.09993431
0.09993511
0.09993235
0.09993315
0.09991091
0.0999117
0.09983965
0.09984042
0.09980099
0.09980176
0.09979432
0.09979509
0.09983424
0.09983501
0.09990784
0.09990864
0.09993061
0.09993141
0.099933
0.0999338
0.09992057
0.09992136
0.09987951
0.09988029
0.09987563
0.09987641
0.09991637
0.09991717
0.09993234
0.09993314
0.09993354
0.09993434
0.09992051
0.0999213
0.0998775
0.09987828
0.09987536
0.09987614
0.09991726
0.09991805
0.0999324
0.0999332
0.09993325
0.09993406
0.09991991
0.09992071
0.09987666
0.09987745
0.09987497
0.09987575
0.09991735
0.09991814
0.09993227
0.09993307
0.09993227
0.09993307
0.09991735
0.09991814
0.09987497
0.09987575
0.09987666
0.09987744
0.09991993
0.09992073
0.09993328
0.09993408
0.0999324
0.0999332
0.09991726
0.09991805
0.09987537
0.09987615
0.09987752
0.0998783
0.09992052
0.09992131
0.09993355
0.09993435
0.09993236
0.09993316
0.09991641
0.0999172
0.09987565
0.09987643
0.09987951
0.09988029
0.09992057
0.09992136
0.09993302
0.09993382
0.09993065
0.09993145
0.09990791
0.0999087
0.09983436
0.09983513
0.09979446
0.09979522
0.09978792
0.09978868
0.0998286
0.09982937
0.09990383
0.09990462
0.09992852
0.09992932
0.09993153
0.09993234
0.09991907
0.09991987
0.09987772
0.0998785
0.09987338
0.09987416
0.09991362
0.09991442
0.09993048
0.09993128
0.09993201
0.09993281
0.09991862
0.09991941
0.09987473
0.09987551
0.09987274
0.09987352
0.09991496
0.09991575
0.09993077
0.09993157
0.09993172
0.09993252
0.09991779
0.09991859
0.09987368
0.09987446
0.09987238
0.09987316
0.09991548
0.09991627
0.0999308
0.0999316
0.0999308
0.0999316
0.09991548
0.09991628
0.09987238
0.09987316
0.09987368
0.09987446
0.0999178
0.09991859
0.09993173
0.09993253
0.09993077
0.09993157
0.09991497
0.09991576
0.09987275
0.09987352
0.09987473
0.09987551
0.09991862
0.09991941
0.09993201
0.09993281
0.09993049
0.09993129
0.09991365
0.09991444
0.0998734
0.09987418
0.09987772
0.0998785
0.09991907
0.09991987
0.09993155
0.09993235
0.09992857
0.09992937
0.0999039
0.09990469
0.09982872
0.09982949
0.09978805
0.09978881
0.09978117
0.09978194
0.09982147
0.09982223
0.09989714
0.09989793
0.09992564
0.09992644
0.09992983
0.09993063
0.09991718
0.09991797
0.09987449
0.09987527
0.09987078
0.09987156
0.09991039
0.09991118
0.09992842
0.09992922
0.09993024
0.09993104
0.0999159
0.09991669
0.09987163
0.09987241
0.09986993
0.09987071
0.09991201
0.0999128
0.09992889
0.09992969
0.09992989
0.09993069
0.09991478
0.09991558
0.0998706
0.09987138
0.09986957
0.09987035
0.09991268
0.09991347
0.09992896
0.09992976
0.09992897
0.09992977
0.09991268
0.09991348
0.09986958
0.09987036
0.0998706
0.09987138
0.09991475
0.09991554
0.09992985
0.09993066
0.0999289
0.09992969
0.09991202
0.09991281
0.09986994
0.09987072
0.09987161
0.09987239
0.09991588
0.09991667
0.09993024
0.09993104
0.09992843
0.09992923
0.09991041
0.0999112
0.0998708
0.09987157
0.0998745
0.09987528
0.09991717
0.09991797
0.09992984
0.09993064
0.09992568
0.09992648
0.09989723
0.09989802
0.0998216
0.09982237
0.0997813
0.09978206
0.09977358
0.09977434
0.09981351
0.09981428
0.09989024
0.09989102
0.0999225
0.09992329
0.09992785
0.09992865
0.09991489
0.09991568
0.0998714
0.09987218
0.09986772
0.0998685
0.09990689
0.09990769
0.0999262
0.099927
0.09992829
0.09992909
0.09991288
0.09991367
0.09986827
0.09986905
0.09986677
0.09986755
0.0999089
0.09990969
0.09992695
0.09992775
0.09992795
0.09992874
0.09991156
0.09991235
0.09986739
0.09986817
0.09986658
0.09986736
0.0999098
0.09991059
0.09992714
0.09992793
0.09992714
0.09992793
0.0999098
0.09991059
0.09986659
0.09986736
0.0998674
0.09986818
0.09991156
0.09991235
0.09992795
0.09992875
0.09992697
0.09992777
0.09990891
0.0999097
0.09986681
0.09986759
0.0998683
0.09986908
0.09991289
0.09991368
0.09992832
0.09992911
0.09992618
0.09992698
0.09990687
0.09990766
0.0998677
0.09986848
0.09987139
0.09987217
0.09991486
0.09991565
0.0999278
0.0999286
0.09992244
0.09992324
0.09989021
0.099891
0.0998135
0.09981427
0.09977356
0.09977432
0.09976253
0.09976329
0.0997969
0.09979767
0.09986703
0.09986781
0.09991351
0.09991431
0.0999224
0.0999232
0.09990503
0.09990582
0.09986561
0.09986639
0.09986231
0.09986309
0.09989614
0.09989693
0.09992114
0.09992194
0.0999234
0.0999242
0.09990213
0.09990292
0.09986288
0.09986366
0.09986151
0.09986229
0.09989845
0.09989923
0.09992213
0.09992293
0.09992305
0.09992385
0.09990071
0.0999015
0.09986202
0.0998628
0.09986139
0.09986217
0.0998994
0.09990019
0.09992234
0.09992314
0.09992235
0.09992314
0.09989941
0.09990019
0.0998614
0.09986217
0.09986201
0.09986279
0.0999007
0.09990149
0.09992304
0.09992383
0.09992213
0.09992293
0.09989847
0.09989926
0.09986151
0.09986229
0.09986285
0.09986363
0.0999021
0.09990289
0.09992338
0.09992418
0.09992118
0.09992198
0.09989619
0.09989698
0.09986237
0.09986314
0.09986567
0.09986645
0.09990507
0.09990586
0.09992247
0.09992327
0.09991365
0.09991444
0.09986721
0.09986799
0.09979713
0.0997979
0.09976275
0.09976351
0.09974388
0.09974464
0.09976847
0.09976923
0.099825
0.09982577
0.0998877
0.09988848
0.09990649
0.09990728
0.09988395
0.09988474
0.09985378
0.09985455
0.09985092
0.0998517
0.09987644
0.09987722
0.09990624
0.09990703
0.09990871
0.0999095
0.09988124
0.09988202
0.09985136
0.09985213
0.0998502
0.09985097
0.09987835
0.09987914
0.09990747
0.09990826
0.09990826
0.09990906
0.09987984
0.09988062
0.09985044
0.09985122
0.09985002
0.0998508
0.09987908
0.09987986
0.09990779
0.09990859
0.0999078
0.09990859
0.09987909
0.09987987
0.09985003
0.0998508
0.09985044
0.09985122
0.09987987
0.09988065
0.0999083
0.09990909
0.09990748
0.09990827
0.09987838
0.09987916
0.09985021
0.09985099
0.09985137
0.09985214
0.09988124
0.09988202
0.0999087
0.09990949
0.09990625
0.09990704
0.09987647
0.09987725
0.09985096
0.09985173
0.09985382
0.09985459
0.09988398
0.09988476
0.09990653
0.09990732
0.09988778
0.09988857
0.09982513
0.0998259
0.09976862
0.09976938
0.09974404
0.0997448
0.09993369
0.09993589
0.09993801
0.09994003
0.09994194
0.09994373
0.09994538
0.09994689
0.09994825
0.09994945
0.0999505
0.0999514
0.09995215
0.09995276
0.09995325
0.09995362
0.09995389
0.09995408
0.09995418
0.09995423
0.09996008
0.09996236
0.09996459
0.09996673
0.09996875
0.09997064
0.09997238
0.09997394
0.09997532
0.09997652
0.09997753
0.09997836
0.09997901
0.09997951
0.09997987
0.09998011
0.09998025
0.09998032
0.09998034
0.09998034
0.09997679
0.09997915
0.09998151
0.09998384
0.0999861
0.09998825
0.09999026
0.09999208
0.09999369
0.09999507
0.09999623
0.09999717
0.09999791
0.09999848
0.0999989
0.09999922
0.09999945
0.09999962
0.09999975
0.09999984
0.09997799
0.09998034
0.09998266
0.09998494
0.09998714
0.09998922
0.09999115
0.09999289
0.09999442
0.09999574
0.09999682
0.0999977
0.09999837
0.09999889
0.09999926
0.09999952
0.0999997
0.09999981
0.09999989
0.09999994
0.09997754
0.09997988
0.0999822
0.09998448
0.09998668
0.09998877
0.09999072
0.09999249
0.09999407
0.09999542
0.09999655
0.09999748
0.0999982
0.09999875
0.09999916
0.09999945
0.09999965
0.09999978
0.09999987
0.09999993
0.09997641
0.09997876
0.09998112
0.09998345
0.09998572
0.09998789
0.09998992
0.09999177
0.09999341
0.09999483
0.09999603
0.099997
0.09999777
0.09999837
0.09999883
0.09999916
0.09999941
0.09999959
0.09999973
0.09999983
0.09995955
0.09996179
0.09996395
0.09996602
0.09996797
0.09996979
0.09997146
0.09997298
0.09997435
0.09997555
0.09997659
0.09997747
0.0999782
0.09997879
0.09997925
0.09997959
0.09997983
0.09997999
0.09998007
0.09998011
0.09996082
0.09996307
0.09996524
0.09996732
0.09996928
0.09997111
0.0999728
0.09997433
0.09997571
0.09997691
0.09997795
0.09997883
0.09997956
0.09998014
0.09998059
0.09998092
0.09998115
0.09998129
0.09998137
0.0999814
0.09997655
0.09997891
0.09998126
0.09998359
0.09998585
0.09998801
0.09999003
0.09999187
0.0999935
0.09999491
0.09999609
0.09999706
0.09999782
0.09999841
0.09999886
0.09999919
0.09999943
0.09999961
0.09999974
0.09999984
0.09997754
0.09997988
0.09998219
0.09998447
0.09998667
0.09998876
0.09999071
0.09999248
0.09999405
0.09999541
0.09999654
0.09999746
0.09999819
0.09999875
0.09999915
0.09999945
0.09999965
0.09999978
0.09999987
0.09999993
0.09997755
0.09997987
0.09998219
0.09998445
0.09998665
0.09998874
0.09999068
0.09999245
0.09999402
0.09999538
0.09999652
0.09999745
0.09999818
0.09999873
0.09999914
0.09999944
0.09999964
0.09999978
0.09999987
0.09999992
0.09997652
0.09997887
0.09998122
0.09998354
0.0999858
0.09998796
0.09998998
0.09999182
0.09999346
0.09999487
0.09999606
0.09999703
0.09999779
0.09999839
0.09999884
0.09999918
0.09999942
0.0999996
0.09999974
0.09999984
0.0999603
0.09996253
0.09996469
0.09996676
0.09996871
0.09997053
0.0999722
0.09997373
0.09997509
0.0999763
0.09997734
0.09997822
0.09997894
0.09997953
0.09997998
0.09998032
0.09998055
0.0999807
0.09998079
0.09998082
0.09996066
0.0999629
0.09996506
0.09996713
0.09996908
0.09997091
0.09997259
0.09997412
0.09997548
0.09997669
0.09997773
0.09997861
0.09997933
0.09997991
0.09998036
0.0999807
0.09998093
0.09998108
0.09998116
0.09998119
0.09997657
0.09997892
0.09998127
0.09998359
0.09998585
0.09998801
0.09999002
0.09999186
0.09999349
0.0999949
0.09999608
0.09999705
0.09999781
0.09999841
0.09999885
0.09999919
0.09999943
0.09999961
0.09999974
0.09999984
0.09997757
0.0999799
0.09998221
0.09998448
0.09998667
0.09998875
0.0999907
0.09999246
0.09999403
0.09999539
0.09999653
0.09999745
0.09999818
0.09999874
0.09999915
0.09999944
0.09999964
0.09999978
0.09999987
0.09999992
0.09997756
0.09997988
0.09998219
0.09998446
0.09998665
0.09998873
0.09999068
0.09999245
0.09999402
0.09999538
0.09999651
0.09999744
0.09999817
0.09999873
0.09999914
0.09999944
0.09999964
0.09999978
0.09999987
0.09999992
0.09997656
0.09997891
0.09998125
0.09998357
0.09998583
0.09998799
0.09999
0.09999184
0.09999347
0.09999488
0.09999607
0.09999703
0.0999978
0.0999984
0.09999885
0.09999918
0.09999942
0.0999996
0.09999974
0.09999984
0.09996049
0.09996272
0.09996488
0.09996695
0.0999689
0.09997072
0.09997239
0.09997392
0.09997528
0.09997649
0.09997752
0.0999784
0.09997913
0.09997971
0.09998016
0.0999805
0.09998073
0.09998088
0.09998096
0.099981
0.09996061
0.09996284
0.099965
0.09996707
0.09996902
0.09997084
0.09997252
0.09997404
0.09997541
0.09997661
0.09997765
0.09997853
0.09997926
0.09997984
0.09998029
0.09998063
0.09998086
0.09998101
0.09998109
0.09998112
0.09997658
0.09997892
0.09998127
0.09998359
0.09998585
0.099988
0.09999001
0.09999185
0.09999348
0.09999489
0.09999608
0.09999704
0.09999781
0.0999984
0.09999885
0.09999918
0.09999943
0.09999961
0.09999974
0.09999984
0.09997755
0.09997988
0.09998219
0.09998445
0.09998665
0.09998873
0.09999067
0.09999244
0.09999402
0.09999537
0.09999651
0.09999744
0.09999817
0.09999873
0.09999914
0.09999944
0.09999964
0.09999978
0.09999987
0.09999992
0.09997755
0.09997988
0.09998219
0.09998445
0.09998665
0.09998873
0.09999067
0.09999244
0.09999402
0.09999537
0.09999651
0.09999744
0.09999817
0.09999873
0.09999914
0.09999944
0.09999964
0.09999978
0.09999987
0.09999992
0.09997658
0.09997892
0.09998127
0.09998359
0.09998585
0.099988
0.09999001
0.09999185
0.09999348
0.09999489
0.09999608
0.09999704
0.09999781
0.0999984
0.09999885
0.09999918
0.09999943
0.09999961
0.09999974
0.09999984
0.09996061
0.09996284
0.099965
0.09996706
0.09996902
0.09997084
0.09997251
0.09997404
0.09997541
0.09997661
0.09997765
0.09997853
0.09997925
0.09997984
0.09998029
0.09998062
0.09998086
0.099981
0.09998108
0.09998112
0.09996046
0.0999627
0.09996486
0.09996692
0.09996887
0.0999707
0.09997237
0.0999739
0.09997527
0.09997647
0.09997751
0.09997839
0.09997912
0.0999797
0.09998015
0.09998049
0.09998072
0.09998087
0.09998095
0.09998098
0.09997654
0.09997889
0.09998124
0.09998356
0.09998582
0.09998798
0.09998999
0.09999183
0.09999347
0.09999488
0.09999606
0.09999703
0.0999978
0.0999984
0.09999884
0.09999918
0.09999942
0.0999996
0.09999974
0.09999984
0.09997754
0.09997986
0.09998218
0.09998444
0.09998664
0.09998872
0.09999067
0.09999244
0.09999401
0.09999537
0.09999651
0.09999744
0.09999817
0.09999873
0.09999914
0.09999944
0.09999964
0.09999978
0.09999987
0.09999992
0.09997756
0.09997989
0.0999822
0.09998447
0.09998666
0.09998875
0.09999069
0.09999246
0.09999403
0.09999539
0.09999652
0.09999745
0.09999818
0.09999873
0.09999915
0.09999944
0.09999964
0.09999978
0.09999987
0.09999992
0.09997657
0.09997892
0.09998127
0.09998359
0.09998585
0.099988
0.09999002
0.09999186
0.09999349
0.0999949
0.09999608
0.09999705
0.09999781
0.0999984
0.09999885
0.09999918
0.09999943
0.09999961
0.09999974
0.09999984
0.0999606
0.09996284
0.09996501
0.09996708
0.09996903
0.09997086
0.09997255
0.09997408
0.09997544
0.09997665
0.09997769
0.09997857
0.0999793
0.09997988
0.09998033
0.09998067
0.0999809
0.09998105
0.09998113
0.09998116
0.09996022
0.09996246
0.09996462
0.09996669
0.09996865
0.09997047
0.09997215
0.09997368
0.09997505
0.09997625
0.09997729
0.09997818
0.0999789
0.09997949
0.09997994
0.09998028
0.09998052
0.09998067
0.09998075
0.09998078
0.09997647
0.09997883
0.09998118
0.09998351
0.09998577
0.09998794
0.09998996
0.0999918
0.09999344
0.09999486
0.09999605
0.09999702
0.09999779
0.09999839
0.09999884
0.09999917
0.09999942
0.0999996
0.09999974
0.09999984
0.0999775
0.09997984
0.09998215
0.09998442
0.09998662
0.09998871
0.09999066
0.09999244
0.09999401
0.09999537
0.09999651
0.09999744
0.09999817
0.09999873
0.09999914
0.09999944
0.09999964
0.09999978
0.09999987
0.09999992
0.09997755
0.09997989
0.0999822
0.09998448
0.09998668
0.09998877
0.09999071
0.09999248
0.09999405
0.09999541
0.09999654
0.09999747
0.09999819
0.09999875
0.09999915
0.09999945
0.09999965
0.09999978
0.09999987
0.09999993
0.09997657
0.09997893
0.09998128
0.0999836
0.09998587
0.09998802
0.09999004
0.09999188
0.09999351
0.09999492
0.0999961
0.09999706
0.09999783
0.09999842
0.09999886
0.09999919
0.09999943
0.09999961
0.09999974
0.09999984
0.09996085
0.0999631
0.09996527
0.09996734
0.0999693
0.09997113
0.09997282
0.09997435
0.09997573
0.09997693
0.09997797
0.09997885
0.09997958
0.09998016
0.0999806
0.09998094
0.09998116