/*--------------------------------*- C++ -*----------------------------------*\
| =========                 |                                                 |
| \\      /  F ield         | OpenFOAM: The Open Source CFD Toolbox           |
|  \\    /   O peration     | Version:  4.0                                   |
|   \\  /    A nd           | Web:      www.OpenFOAM.org                      |
|    \\/     M anipulation  |                                                 |
\*---------------------------------------------------------------------------*/
FoamFile
{
    version     2.0;
    format      ascii;
    class       volScalarField;
    location    "60/fuel";
    object      YH2Ofuel;
}
// * * * * * * * * * * * * * * * * * * * * * * * * * * * * * * * * * * * * * //

dimensions      [0 0 0 0 0 0 0];

internalField   nonuniform List<scalar> 
39776
(
0.09998994
0.09999034
0.09998932
0.09998971
0.09998836
0.09998875
0.09998806
0.09998845
0.09998856
0.09998895
0.09998886
0.09998926
0.09998996
0.09999036
0.09999003
0.09999042
0.09998912
0.09998952
0.09999025
0.09999064
0.09999032
0.09999072
0.09998978
0.09999018
0.09999058
0.09999098
0.09999045
0.09999085
0.09998956
0.09998995
0.09999057
0.09999096
0.09999047
0.09999087
0.09998976
0.09999015
0.0999906
0.09999099
0.09999051
0.09999091
0.09998965
0.09999004
0.0999905
0.0999909
0.0999905
0.0999909
0.09998964
0.09999004
0.09999051
0.09999091
0.0999906
0.099991
0.09998976
0.09999016
0.09999048
0.09999087
0.09999057
0.09999096
0.09998956
0.09998995
0.09999046
0.09999085
0.09999058
0.09999097
0.09998977
0.09999017
0.09999032
0.09999071
0.09999025
0.09999064
0.09998912
0.09998952
0.09999003
0.09999043
0.09998997
0.09999036
0.09998887
0.09998926
0.09998856
0.09998895
0.09998806
0.09998845
0.09998836
0.09998875
0.09998932
0.09998971
0.09998994
0.09999034
0.09999089
0.09999128
0.09999259
0.09999299
0.09999389
0.09999429
0.09999415
0.09999455
0.09999392
0.09999432
0.09999401
0.09999441
0.09999212
0.09999252
0.0999929
0.0999933
0.09999444
0.09999484
0.09999467
0.09999507
0.0999947
0.09999511
0.09999454
0.09999495
0.09999287
0.09999327
0.09999292
0.09999332
0.09999453
0.09999493
0.09999473
0.09999514
0.09999473
0.09999514
0.09999457
0.09999497
0.09999295
0.09999335
0.0999929
0.0999933
0.09999453
0.09999493
0.09999473
0.09999514
0.09999473
0.09999514
0.09999452
0.09999493
0.0999929
0.0999933
0.09999295
0.09999335
0.09999457
0.09999497
0.09999473
0.09999514
0.09999473
0.09999514
0.09999453
0.09999493
0.09999292
0.09999332
0.09999287
0.09999327
0.09999454
0.09999494
0.0999947
0.0999951
0.09999466
0.09999507
0.09999443
0.09999484
0.0999929
0.0999933
0.09999212
0.09999252
0.09999401
0.09999441
0.09999392
0.09999432
0.09999415
0.09999455
0.09999389
0.09999429
0.09999259
0.09999299
0.09999088
0.09999128
0.09999174
0.09999213
0.09999313
0.09999353
0.09999424
0.09999464
0.09999389
0.09999429
0.09999319
0.09999359
0.09999355
0.09999396
0.09999209
0.09999249
0.09999288
0.09999327
0.09999415
0.09999456
0.09999395
0.09999435
0.09999387
0.09999428
0.09999415
0.09999456
0.09999272
0.09999312
0.09999272
0.09999312
0.09999414
0.09999454
0.09999395
0.09999435
0.09999391
0.09999431
0.09999419
0.09999459
0.09999278
0.09999318
0.09999272
0.09999312
0.09999414
0.09999454
0.09999393
0.09999433
0.09999393
0.09999433
0.09999414
0.09999454
0.09999272
0.09999312
0.09999278
0.09999318
0.09999419
0.09999459
0.09999391
0.09999432
0.09999395
0.09999435
0.09999413
0.09999454
0.09999272
0.09999312
0.09999273
0.09999313
0.09999415
0.09999455
0.09999387
0.09999428
0.09999395
0.09999435
0.09999415
0.09999456
0.09999287
0.09999327
0.09999209
0.09999249
0.09999356
0.09999396
0.09999319
0.09999359
0.09999389
0.09999429
0.09999424
0.09999464
0.09999313
0.09999353
0.09999174
0.09999213
0.09999183
0.09999222
0.09999282
0.09999322
0.09999399
0.09999439
0.09999348
0.09999388
0.09999247
0.09999287
0.09999305
0.09999345
0.09999149
0.09999188
0.09999232
0.09999272
0.09999365
0.09999405
0.09999326
0.09999366
0.09999314
0.09999354
0.0999936
0.099994
0.09999203
0.09999243
0.09999226
0.09999266
0.09999363
0.09999403
0.09999322
0.09999362
0.09999318
0.09999358
0.09999365
0.09999405
0.09999216
0.09999256
0.09999219
0.09999259
0.09999362
0.09999402
0.09999318
0.09999358
0.09999318
0.09999358
0.09999362
0.09999402
0.09999219
0.09999259
0.09999216
0.09999256
0.09999365
0.09999405
0.09999318
0.09999358
0.09999322
0.09999362
0.09999363
0.09999403
0.09999225
0.09999265
0.09999203
0.09999243
0.09999359
0.099994
0.09999314
0.09999354
0.09999325
0.09999366
0.09999365
0.09999405
0.09999232
0.09999272
0.09999149
0.09999189
0.09999305
0.09999345
0.09999247
0.09999287
0.09999348
0.09999388
0.09999399
0.09999439
0.09999282
0.09999322
0.09999182
0.09999222
0.09999121
0.09999161
0.09999243
0.09999283
0.09999355
0.09999395
0.09999295
0.09999335
0.09999184
0.09999223
0.09999239
0.09999278
0.099991
0.09999139
0.09999179
0.09999219
0.09999305
0.09999345
0.09999261
0.09999301
0.09999248
0.09999288
0.09999289
0.09999329
0.09999152
0.09999192
0.0999918
0.09999219
0.09999303
0.09999343
0.09999256
0.09999296
0.09999252
0.09999292
0.09999297
0.09999337
0.09999163
0.09999203
0.09999172
0.09999212
0.099993
0.0999934
0.09999253
0.09999293
0.09999253
0.09999293
0.09999299
0.09999339
0.09999172
0.09999211
0.09999163
0.09999203
0.09999297
0.09999337
0.09999253
0.09999293
0.09999256
0.09999296
0.09999302
0.09999342
0.09999179
0.09999219
0.09999152
0.09999192
0.09999289
0.09999329
0.09999248
0.09999288
0.09999261
0.09999301
0.09999306
0.09999346
0.09999179
0.09999219
0.099991
0.09999139
0.09999239
0.09999279
0.09999183
0.09999223
0.09999295
0.09999335
0.09999354
0.09999395
0.09999243
0.09999283
0.09999121
0.09999161
0.09999072
0.09999112
0.09999203
0.09999243
0.09999301
0.09999341
0.09999245
0.09999285
0.09999128
0.09999167
0.09999185
0.09999225
0.09999039
0.09999078
0.09999131
0.09999171
0.09999251
0.09999291
0.09999205
0.09999245
0.09999188
0.09999228
0.0999923
0.0999927
0.09999096
0.09999135
0.0999913
0.09999169
0.09999247
0.09999287
0.09999198
0.09999238
0.09999193
0.09999233
0.0999924
0.0999928
0.09999108
0.09999147
0.0999912
0.09999159
0.09999244
0.09999284
0.09999194
0.09999234
0.09999194
0.09999234
0.09999244
0.09999284
0.0999912
0.09999159
0.09999108
0.09999148
0.0999924
0.0999928
0.09999193
0.09999233
0.09999198
0.09999237
0.09999247
0.09999287
0.09999129
0.09999169
0.09999096
0.09999135
0.0999923
0.0999927
0.09999188
0.09999228
0.09999205
0.09999245
0.09999251
0.09999291
0.09999132
0.09999172
0.09999039
0.09999079
0.09999185
0.09999225
0.09999128
0.09999167
0.09999245
0.09999284
0.09999302
0.09999342
0.09999204
0.09999243
0.09999072
0.09999112
0.09999023
0.09999062
0.09999165
0.09999205
0.0999925
0.0999929
0.09999198
0.09999238
0.09999078
0.09999117
0.09999132
0.09999171
0.09998985
0.09999024
0.0999909
0.0999913
0.09999198
0.09999238
0.09999154
0.09999193
0.09999133
0.09999173
0.09999176
0.09999216
0.09999042
0.09999082
0.09999078
0.09999117
0.09999194
0.09999233
0.09999145
0.09999184
0.09999139
0.09999179
0.09999188
0.09999227
0.09999057
0.09999097
0.09999066
0.09999106
0.09999189
0.09999229
0.09999141
0.09999181
0.09999141
0.09999181
0.09999189
0.09999229
0.09999066
0.09999106
0.09999057
0.09999097
0.09999188
0.09999227
0.0999914
0.09999179
0.09999144
0.09999184
0.09999193
0.09999233
0.09999077
0.09999117
0.09999042
0.09999082
0.09999176
0.09999216
0.09999133
0.09999173
0.09999154
0.09999193
0.09999199
0.09999239
0.09999091
0.09999131
0.09998985
0.09999025
0.09999132
0.09999171
0.09999078
0.09999117
0.09999198
0.09999237
0.0999925
0.0999929
0.09999165
0.09999205
0.09999023
0.09999062
0.09998974
0.09999014
0.0999913
0.09999169
0.099992
0.09999239
0.09999152
0.09999192
0.09999035
0.09999075
0.09999081
0.09999121
0.09998935
0.09998975
0.09999049
0.09999089
0.09999149
0.09999189
0.09999106
0.09999146
0.09999082
0.09999122
0.09999129
0.09999169
0.09998992
0.09999031
0.09999024
0.09999064
0.09999143
0.09999183
0.09999096
0.09999135
0.0999909
0.0999913
0.09999143
0.09999183
0.09999012
0.09999051
0.09999012
0.09999052
0.09999136
0.09999176
0.09999092
0.09999132
0.09999092
0.09999132
0.09999136
0.09999176
0.09999012
0.09999052
0.09999011
0.09999051
0.09999143
0.09999183
0.09999091
0.0999913
0.09999096
0.09999135
0.09999143
0.09999183
0.09999024
0.09999063
0.09998991
0.09999031
0.09999129
0.09999169
0.09999082
0.09999122
0.09999106
0.09999146
0.09999149
0.09999189
0.0999905
0.0999909
0.09998936
0.09998975
0.09999081
0.09999121
0.09999035
0.09999074
0.09999152
0.09999192
0.099992
0.09999239
0.0999913
0.09999169
0.09998974
0.09999014
0.09998925
0.09998965
0.09999094
0.09999134
0.09999151
0.09999191
0.09999108
0.09999147
0.09998996
0.09999036
0.09999035
0.09999075
0.0999889
0.09998929
0.09999007
0.09999046
0.09999103
0.09999142
0.09999061
0.099991
0.09999037
0.09999077
0.09999088
0.09999127
0.09998948
0.09998987
0.09998973
0.09999013
0.09999096
0.09999136
0.0999905
0.0999909
0.09999046
0.09999086
0.09999103
0.09999142
0.09998967
0.09999007
0.09998961
0.09999001
0.0999909
0.09999129
0.09999048
0.09999087
0.09999048
0.09999087
0.09999089
0.09999129
0.09998962
0.09999001
0.09998967
0.09999007
0.09999103
0.09999142
0.09999046
0.09999086
0.0999905
0.0999909
0.09999096
0.09999136
0.09998973
0.09999013
0.09998947
0.09998987
0.09999088
0.09999127
0.09999037
0.09999076
0.09999061
0.099991
0.09999103
0.09999143
0.09999007
0.09999046
0.09998891
0.0999893
0.09999035
0.09999075
0.09998996
0.09999035
0.09999108
0.09999147
0.09999151
0.09999191
0.09999094
0.09999134
0.09998925
0.09998965
0.09998877
0.09998916
0.09999056
0.09999095
0.09999104
0.09999144
0.09999064
0.09999104
0.0999896
0.09999
0.09998991
0.09999031
0.09998849
0.09998888
0.09998966
0.09999006
0.09999061
0.09999101
0.09999017
0.09999057
0.09998996
0.09999035
0.09999049
0.09999089
0.09998907
0.09998947
0.09998927
0.09998966
0.09999053
0.09999092
0.09999008
0.09999047
0.09999006
0.09999045
0.09999064
0.09999104
0.09998924
0.09998963
0.09998917
0.09998956
0.09999049
0.09999088
0.09999007
0.09999046
0.09999007
0.09999046
0.09999048
0.09999088
0.09998917
0.09998956
0.09998924
0.09998963
0.09999065
0.09999104
0.09999006
0.09999045
0.09999008
0.09999047
0.09999053
0.09999092
0.09998927
0.09998966
0.09998907
0.09998946
0.09999049
0.09999089
0.09998996
0.09999035
0.09999017
0.09999057
0.09999062
0.09999101
0.09998966
0.09999006
0.09998849
0.09998888
0.09998991
0.09999031
0.0999896
0.09998999
0.09999064
0.09999103
0.09999104
0.09999144
0.09999056
0.09999095
0.09998877
0.09998916
0.0999883
0.09998869
0.09999011
0.0999905
0.09999059
0.09999098
0.09999022
0.09999061
0.09998928
0.09998967
0.09998951
0.0999899
0.09998811
0.0999885
0.09998925
0.09998965
0.09999026
0.09999065
0.09998977
0.09999016
0.09998958
0.09998997
0.09999011
0.09999051
0.09998868
0.09998907
0.09998888
0.09998927
0.09999015
0.09999054
0.09998969
0.09999008
0.09998967
0.09999007
0.09999027
0.09999066
0.09998882
0.09998921
0.09998878
0.09998917
0.09999011
0.0999905
0.09998968
0.09999007
0.09998968
0.09999007
0.09999011
0.0999905
0.09998878
0.09998917
0.09998882
0.09998921
0.09999027
0.09999067
0.09998968
0.09999007
0.09998969
0.09999008
0.09999014
0.09999054
0.09998888
0.09998927
0.09998868
0.09998907
0.09999011
0.09999051
0.09998958
0.09998997
0.09998977
0.09999017
0.09999027
0.09999066
0.09998926
0.09998965
0.09998812
0.09998851
0.09998951
0.0999899
0.09998927
0.09998967
0.09999022
0.09999061
0.09999059
0.09999098
0.09999011
0.0999905
0.0999883
0.09998869
0.09998784
0.09998824
0.09998963
0.09999002
0.09999015
0.09999055
0.09998981
0.09999021
0.09998897
0.09998936
0.09998915
0.09998954
0.0999878
0.09998819
0.09998882
0.09998921
0.09998991
0.0999903
0.0999894
0.0999898
0.09998922
0.09998962
0.09998972
0.09999012
0.09998831
0.0999887
0.09998851
0.0999889
0.0999898
0.09999019
0.09998931
0.09998971
0.09998929
0.09998968
0.09998986
0.09999025
0.09998841
0.0999888
0.09998843
0.09998882
0.09998975
0.09999015
0.0999893
0.0999897
0.0999893
0.0999897
0.09998975
0.09999014
0.09998843
0.09998883
0.09998841
0.0999888
0.09998986
0.09999026
0.09998929
0.09998968
0.09998931
0.09998971
0.09998979
0.09999019
0.09998851
0.0999889
0.0999883
0.0999887
0.09998973
0.09999012
0.09998922
0.09998961
0.0999894
0.0999898
0.09998992
0.09999032
0.09998883
0.09998922
0.09998779
0.09998819
0.09998914
0.09998953
0.09998897
0.09998936
0.09998981
0.09999021
0.09999015
0.09999055
0.09998963
0.09999002
0.09998785
0.09998824
0.09998741
0.0999878
0.09998915
0.09998954
0.09998974
0.09999013
0.09998941
0.09998981
0.09998867
0.09998906
0.09998888
0.09998927
0.09998758
0.09998797
0.09998833
0.09998872
0.09998944
0.09998983
0.09998903
0.09998942
0.09998889
0.09998928
0.09998936
0.09998975
0.09998801
0.0999884
0.09998812
0.09998851
0.09998936
0.09998975
0.09998894
0.09998933
0.09998889
0.09998928
0.09998935
0.09998975
0.09998803
0.09998842
0.09998812
0.09998851
0.09998942
0.09998981
0.09998894
0.09998933
0.09998894
0.09998933
0.09998941
0.09998981
0.09998812
0.09998851
0.09998803
0.09998842
0.09998936
0.09998975
0.09998889
0.09998928
0.09998894
0.09998933
0.09998936
0.09998975
0.09998812
0.09998851
0.099988
0.09998839
0.09998936
0.09998975
0.09998888
0.09998928
0.09998903
0.09998942
0.09998945
0.09998985
0.09998834
0.09998874
0.09998758
0.09998797
0.09998887
0.09998926
0.09998866
0.09998906
0.09998941
0.09998981
0.09998974
0.09999013
0.09998915
0.09998955
0.09998741
0.09998781
0.09998702
0.09998741
0.09998871
0.0999891
0.09998935
0.09998974
0.09998901
0.0999894
0.09998837
0.09998877
0.09998871
0.0999891
0.09998749
0.09998789
0.09998787
0.09998827
0.09998884
0.09998924
0.09998861
0.099989
0.0999886
0.09998899
0.09998913
0.09998952
0.09998784
0.09998823
0.09998774
0.09998813
0.09998876
0.09998915
0.09998852
0.09998892
0.09998849
0.09998888
0.09998882
0.09998921
0.09998765
0.09998804
0.09998784
0.09998823
0.0999891
0.09998949
0.09998859
0.09998899
0.09998859
0.09998899
0.09998909
0.09998949
0.09998784
0.09998823
0.09998765
0.09998804
0.09998882
0.09998921
0.09998849
0.09998889
0.09998853
0.09998892
0.09998876
0.09998916
0.09998774
0.09998813
0.09998782
0.09998822
0.09998912
0.09998951
0.09998859
0.09998898
0.09998861
0.09998901
0.09998886
0.09998925
0.09998788
0.09998827
0.09998749
0.09998788
0.0999887
0.0999891
0.09998837
0.09998876
0.09998901
0.0999894
0.09998935
0.09998974
0.09998871
0.0999891
0.09998702
0.09998741
0.09998662
0.09998701
0.09998825
0.09998864
0.09998891
0.0999893
0.09998857
0.09998897
0.09998809
0.09998848
0.09998852
0.09998892
0.09998739
0.09998778
0.09998748
0.09998787
0.09998821
0.0999886
0.09998818
0.09998857
0.09998836
0.09998875
0.09998905
0.09998945
0.09998781
0.0999882
0.09998741
0.0999878
0.0999881
0.09998849
0.0999881
0.09998849
0.09998812
0.09998851
0.09998833
0.09998872
0.09998728
0.09998767
0.09998753
0.09998792
0.09998878
0.09998917
0.09998826
0.09998865
0.09998826
0.09998865
0.09998877
0.09998917
0.09998753
0.09998792
0.09998728
0.09998767
0.09998833
0.09998872
0.09998812
0.09998851
0.0999881
0.09998849
0.09998811
0.0999885
0.0999874
0.09998779
0.09998778
0.09998817
0.09998904
0.09998943
0.09998835
0.09998874
0.09998818
0.09998857
0.09998822
0.09998862
0.09998748
0.09998787
0.09998738
0.09998778
0.09998852
0.09998891
0.09998808
0.09998847
0.09998857
0.09998896
0.09998891
0.0999893
0.09998825
0.09998864
0.09998662
0.09998701
0.09998622
0.09998661
0.09998775
0.09998814
0.0999884
0.09998879
0.09998815
0.09998854
0.09998779
0.09998818
0.09998822
0.09998861
0.09998712
0.09998751
0.0999871
0.09998749
0.09998766
0.09998805
0.09998779
0.09998818
0.09998815
0.09998854
0.09998897
0.09998936
0.09998768
0.09998807
0.09998707
0.09998746
0.09998754
0.09998793
0.09998772
0.09998812
0.0999878
0.09998819
0.09998793
0.09998832
0.0999869
0.09998729
0.09998718
0.09998757
0.09998844
0.09998883
0.09998795
0.09998834
0.09998794
0.09998834
0.09998843
0.09998882
0.09998717
0.09998756
0.0999869
0.09998729
0.09998793
0.09998832
0.0999878
0.09998819
0.09998773
0.09998812
0.09998755
0.09998794
0.09998706
0.09998745
0.09998765
0.09998804
0.09998895
0.09998934
0.09998814
0.09998853
0.09998779
0.09998818
0.09998767
0.09998806
0.0999871
0.09998749
0.09998711
0.0999875
0.09998822
0.09998861
0.09998779
0.09998818
0.09998815
0.09998854
0.0999884
0.09998879
0.09998775
0.09998814
0.09998622
0.09998661
0.09998582
0.09998621
0.09998721
0.0999876
0.09998782
0.09998821
0.09998772
0.09998811
0.09998743
0.09998782
0.09998779
0.09998818
0.09998676
0.09998715
0.09998672
0.09998711
0.09998717
0.09998756
0.09998738
0.09998777
0.09998784
0.09998823
0.09998857
0.09998897
0.09998728
0.09998767
0.09998666
0.09998705
0.09998714
0.09998753
0.09998737
0.09998776
0.09998744
0.09998783
0.09998755
0.09998795
0.09998657
0.09998696
0.09998679
0.09998718
0.09998801
0.09998841
0.09998761
0.09998801
0.09998761
0.099988
0.09998801
0.0999884
0.09998679
0.09998718
0.09998657
0.09998695
0.09998756
0.09998795
0.09998744
0.09998784
0.09998737
0.09998776
0.09998715
0.09998754
0.09998666
0.09998705
0.09998726
0.09998765
0.09998856
0.09998895
0.09998783
0.09998822
0.09998738
0.09998777
0.09998718
0.09998757
0.09998673
0.09998712
0.09998675
0.09998714
0.09998778
0.09998817
0.09998743
0.09998782
0.09998772
0.09998811
0.09998783
0.09998822
0.09998721
0.0999876
0.09998582
0.09998621
0.09998539
0.09998577
0.09998665
0.09998704
0.09998725
0.09998764
0.0999873
0.09998769
0.09998706
0.09998745
0.09998726
0.09998765
0.09998636
0.09998675
0.09998632
0.09998671
0.09998673
0.09998712
0.09998699
0.09998738
0.09998741
0.09998781
0.09998784
0.09998823
0.09998678
0.09998717
0.09998633
0.09998672
0.09998684
0.09998723
0.09998703
0.09998742
0.09998708
0.09998747
0.09998717
0.09998756
0.09998621
0.0999866
0.09998638
0.09998677
0.09998753
0.09998792
0.09998726
0.09998765
0.09998726
0.09998765
0.09998753
0.09998792
0.09998638
0.09998677
0.09998621
0.0999866
0.09998717
0.09998756
0.09998708
0.09998747
0.09998704
0.09998743
0.09998685
0.09998724
0.09998632
0.09998671
0.09998676
0.09998715
0.09998783
0.09998822
0.09998741
0.0999878
0.09998699
0.09998738
0.09998674
0.09998713
0.09998632
0.09998671
0.09998635
0.09998674
0.09998725
0.09998764
0.09998705
0.09998744
0.0999873
0.09998769
0.09998726
0.09998765
0.09998665
0.09998704
0.09998539
0.09998578
0.09998493
0.09998531
0.09998613
0.09998652
0.09998659
0.09998698
0.09998675
0.09998714
0.09998656
0.09998695
0.09998664
0.09998703
0.09998595
0.09998634
0.09998591
0.0999863
0.09998621
0.0999866
0.09998648
0.09998687
0.09998682
0.09998721
0.09998694
0.09998733
0.09998633
0.09998672
0.09998613
0.09998652
0.09998651
0.0999869
0.0999866
0.09998699
0.09998659
0.09998698
0.09998665
0.09998704
0.09998591
0.0999863
0.09998601
0.0999864
0.09998686
0.09998725
0.09998676
0.09998715
0.09998676
0.09998715
0.09998686
0.09998725
0.099986
0.09998639
0.0999859
0.09998629
0.09998664
0.09998703
0.09998659
0.09998698
0.09998661
0.099987
0.09998652
0.09998691
0.09998612
0.09998651
0.09998631
0.0999867
0.09998692
0.09998731
0.09998681
0.0999872
0.09998648
0.09998687
0.09998622
0.09998661
0.09998591
0.0999863
0.09998595
0.09998633
0.09998663
0.09998702
0.09998656
0.09998695
0.09998676
0.09998715
0.0999866
0.09998699
0.09998613
0.09998652
0.09998493
0.09998532
0.09998441
0.0999848
0.09998541
0.0999858
0.09998578
0.09998617
0.09998608
0.09998647
0.09998592
0.09998631
0.09998587
0.09998626
0.09998545
0.09998584
0.09998545
0.09998584
0.09998556
0.09998595
0.09998586
0.09998625
0.09998604
0.09998643
0.09998595
0.09998634
0.09998584
0.09998623
0.09998575
0.09998614
0.09998599
0.09998638
0.09998608
0.09998647
0.09998601
0.0999864
0.099986
0.09998639
0.09998548
0.09998587
0.09998552
0.0999859
0.09998598
0.09998636
0.09998609
0.09998648
0.09998609
0.09998648
0.09998598
0.09998637
0.09998552
0.0999859
0.09998547
0.09998586
0.09998599
0.09998638
0.099986
0.09998639
0.09998608
0.09998647
0.09998601
0.09998639
0.09998575
0.09998614
0.09998582
0.09998621
0.09998594
0.09998633
0.09998602
0.09998641
0.09998587
0.09998626
0.09998558
0.09998597
0.09998545
0.09998584
0.09998544
0.09998583
0.09998585
0.09998624
0.09998593
0.09998631
0.09998607
0.09998646
0.09998578
0.09998617
0.09998542
0.0999858
0.09998441
0.0999848
0.09998385
0.09998423
0.09998477
0.09998516
0.09998487
0.09998525
0.09998521
0.09998559
0.09998512
0.09998551
0.09998487
0.09998526
0.09998508
0.09998547
0.09998521
0.0999856
0.09998494
0.09998533
0.09998513
0.09998552
0.09998512
0.09998551
0.09998489
0.09998527
0.09998548
0.09998587
0.09998554
0.09998593
0.09998535
0.09998574
0.09998537
0.09998576
0.0999853
0.09998569
0.0999853
0.09998568
0.09998527
0.09998566
0.09998515
0.09998554
0.09998496
0.09998534
0.0999852
0.09998559
0.0999852
0.09998559
0.09998497
0.09998535
0.09998514
0.09998553
0.09998525
0.09998564
0.09998527
0.09998566
0.09998529
0.09998568
0.09998537
0.09998576
0.09998537
0.09998575
0.09998554
0.09998593
0.09998546
0.09998585
0.09998487
0.09998526
0.09998512
0.09998551
0.09998516
0.09998555
0.09998496
0.09998535
0.09998521
0.09998559
0.09998507
0.09998546
0.09998485
0.09998523
0.09998512
0.09998551
0.0999852
0.09998559
0.09998486
0.09998524
0.09998477
0.09998516
0.09998385
0.09998424
0.09998346
0.09998385
0.09998369
0.09998407
0.09998298
0.09998337
0.0999831
0.09998349
0.09998308
0.09998347
0.09998362
0.099984
0.09998492
0.09998531
0.0999849
0.09998528
0.09998369
0.09998407
0.09998325
0.09998363
0.09998304
0.09998343
0.09998378
0.09998417
0.09998531
0.0999857
0.09998518
0.09998557
0.09998395
0.09998434
0.09998348
0.09998387
0.09998342
0.0999838
0.09998376
0.09998415
0.099985
0.09998539
0.09998491
0.0999853
0.09998369
0.09998407
0.0999832
0.09998359
0.09998322
0.0999836
0.09998369
0.09998407
0.0999849
0.09998529
0.09998498
0.09998537
0.09998374
0.09998412
0.0999834
0.09998379
0.09998349
0.09998388
0.09998396
0.09998435
0.09998518
0.09998556
0.09998529
0.09998568
0.09998377
0.09998415
0.09998306
0.09998344
0.09998328
0.09998366
0.0999837
0.09998409
0.09998489
0.09998528
0.09998491
0.0999853
0.09998361
0.09998399
0.09998308
0.09998347
0.09998309
0.09998348
0.09998298
0.09998336
0.09998369
0.09998407
0.09998347
0.09998385
0.09999109
0.09999216
0.09999316
0.09999406
0.09999486
0.09999555
0.09999614
0.09999664
0.09999707
0.09999743
0.09999774
0.09999799
0.0999982
0.09999837
0.09999851
0.09999862
0.0999987
0.09999876
0.09999878
0.09999879
0.09999046
0.09999151
0.09999249
0.09999337
0.09999417
0.09999489
0.09999553
0.09999611
0.09999661
0.09999706
0.09999744
0.09999775
0.09999801
0.0999982
0.09999836
0.09999847
0.09999855
0.0999986
0.09999862
0.09999863
0.09998949
0.09999049
0.09999138
0.09999223
0.09999306
0.09999387
0.0999947
0.09999554
0.09999639
0.09999723
0.09999795
0.09999852
0.09999897
0.09999931
0.09999955
0.09999972
0.09999984
0.09999991
0.09999996
0.09999999
0.09998919
0.0999902
0.09999112
0.09999204
0.09999302
0.09999406
0.09999519
0.09999633
0.09999739
0.0999983
0.09999899
0.09999945
0.09999973
0.09999988
0.09999995
0.09999998
0.09999999
0.1
0.1
0.1
0.0999897
0.09999072
0.09999171
0.09999273
0.09999381
0.09999497
0.09999614
0.09999726
0.09999823
0.09999899
0.0999995
0.09999979
0.09999992
0.09999998
0.09999999
0.1
0.1
0.1
0.1
0.1
0.09999
0.099991
0.09999189
0.09999277
0.09999371
0.09999472
0.09999582
0.09999694
0.09999792
0.09999869
0.09999922
0.09999954
0.09999972
0.09999982
0.09999988
0.09999991
0.09999994
0.09999996
0.09999998
0.09999999
0.0999911
0.09999213
0.09999303
0.0999938
0.09999444
0.09999499
0.09999545
0.09999584
0.09999618
0.09999648
0.09999673
0.09999695
0.09999714
0.0999973
0.09999743
0.09999755
0.09999765
0.09999773
0.09999778
0.0999978
0.09999117
0.09999219
0.09999307
0.09999381
0.09999443
0.09999496
0.0999954
0.09999578
0.0999961
0.09999637
0.09999659
0.09999677
0.09999692
0.09999705
0.09999716
0.09999726
0.09999734
0.09999741
0.09999746
0.09999748
0.09999026
0.09999123
0.09999204
0.09999278
0.09999358
0.09999445
0.09999542
0.09999647
0.09999741
0.09999818
0.09999875
0.09999915
0.09999942
0.0999996
0.09999972
0.09999981
0.09999988
0.09999992
0.09999996
0.09999998
0.0999914
0.09999243
0.09999341
0.09999442
0.09999549
0.09999654
0.09999752
0.09999837
0.09999902
0.09999947
0.09999973
0.09999987
0.09999994
0.09999997
0.09999999
0.09999999
0.1
0.1
0.1
0.1
0.09999147
0.0999925
0.09999346
0.09999445
0.0999955
0.09999658
0.09999759
0.09999847
0.09999913
0.09999956
0.0999998
0.09999992
0.09999997
0.09999999
0.09999999
0.1
0.1
0.1
0.1
0.1
0.09999092
0.0999919
0.09999274
0.0999935
0.09999432
0.09999522
0.09999622
0.09999724
0.09999811
0.09999877
0.09999922
0.0999995
0.09999966
0.09999977
0.09999983
0.09999988
0.09999992
0.09999995
0.09999997
0.09999999
0.09999173
0.09999275
0.09999364
0.09999438
0.09999501
0.09999552
0.09999596
0.09999633
0.09999664
0.09999691
0.09999713
0.09999732
0.09999747
0.0999976
0.09999771
0.0999978
0.09999788
0.09999795
0.099998
0.09999801
0.0999916
0.09999262
0.09999351
0.09999425
0.09999487
0.0999954
0.09999584
0.09999621
0.09999653
0.0999968
0.09999702
0.09999721
0.09999737
0.09999751
0.09999763
0.09999773
0.09999783
0.0999979
0.09999795
0.09999797
0.0999907
0.09999167
0.0999925
0.09999327
0.09999409
0.09999501
0.09999602
0.09999705
0.09999793
0.09999861
0.09999909
0.0999994
0.0999996
0.09999972
0.09999981
0.09999987
0.09999991
0.09999995
0.09999997
0.09999999
0.09999171
0.09999275
0.09999374
0.09999476
0.09999583
0.09999687
0.09999783
0.09999862
0.09999921
0.09999959
0.09999981
0.09999992
0.09999996
0.09999998
0.09999999
0.1
0.1
0.1
0.1
0.1
0.09999162
0.09999265
0.09999362
0.09999462
0.09999568
0.09999674
0.09999773
0.09999857
0.09999919
0.09999959
0.09999981
0.09999992
0.09999997
0.09999999
0.09999999
0.1
0.1
0.1
0.1
0.1
0.0999909
0.09999188
0.09999271
0.09999347
0.09999428
0.09999517
0.09999617
0.09999719
0.09999807
0.09999873
0.09999919
0.09999947
0.09999965
0.09999975
0.09999983
0.09999988
0.09999992
0.09999995
0.09999997
0.09999999
0.09999174
0.09999277
0.09999365
0.0999944
0.09999502
0.09999553
0.09999597
0.09999634
0.09999665
0.09999692
0.09999714
0.09999732
0.09999747
0.0999976
0.09999771
0.09999781
0.0999979
0.09999797
0.09999801
0.09999803
0.09999166
0.09999268
0.09999357
0.09999431
0.09999494
0.09999546
0.0999959
0.09999627
0.09999658
0.09999684
0.09999706
0.09999724
0.0999974
0.09999752
0.09999763
0.09999773
0.09999781
0.09999788
0.09999793
0.09999795
0.09999079
0.09999176
0.0999926
0.09999336
0.09999419
0.0999951
0.09999611
0.09999714
0.09999801
0.09999868
0.09999914
0.09999944
0.09999963
0.09999974
0.09999982
0.09999987
0.09999991
0.09999995
0.09999997
0.09999999
0.09999165
0.09999268
0.09999366
0.09999467
0.09999574
0.0999968
0.09999778
0.0999986
0.09999921
0.0999996
0.09999982
0.09999992
0.09999997
0.09999999
0.09999999
0.1
0.1
0.1
0.1
0.1
0.09999165
0.09999268
0.09999366
0.09999467
0.09999574
0.0999968
0.09999778
0.0999986
0.09999921
0.0999996
0.09999981
0.09999992
0.09999997
0.09999999
0.09999999
0.1
0.1
0.1
0.1
0.1
0.09999078
0.09999176
0.09999259
0.09999336
0.09999419
0.0999951
0.0999961
0.09999713
0.09999801
0.09999868
0.09999914
0.09999944
0.09999962
0.09999974
0.09999981
0.09999987
0.09999991
0.09999995
0.09999997
0.09999999
0.09999166
0.09999268
0.09999357
0.09999431
0.09999493
0.09999545
0.09999589
0.09999627
0.09999658
0.09999684
0.09999706
0.09999724
0.0999974
0.09999752
0.09999763
0.09999773
0.09999782
0.09999789
0.09999793
0.09999795
0.09999175
0.09999277
0.09999365
0.0999944
0.09999502
0.09999554
0.09999597
0.09999634
0.09999666
0.09999692
0.09999714
0.09999732
0.09999748
0.09999761
0.09999772
0.09999782
0.0999979
0.09999797
0.09999802
0.09999803
0.09999091
0.09999188
0.09999271
0.09999347
0.09999428
0.09999517
0.09999617
0.09999719
0.09999807
0.09999873
0.09999919
0.09999947
0.09999965
0.09999975
0.09999983
0.09999988
0.09999992
0.09999995
0.09999997
0.09999999
0.09999162
0.09999265
0.09999362
0.09999463
0.09999568
0.09999675
0.09999773
0.09999857
0.09999919
0.09999959
0.09999981
0.09999992
0.09999997
0.09999999
0.09999999
0.1
0.1
0.1
0.1
0.1
0.09999171
0.09999275
0.09999374
0.09999476
0.09999583
0.09999687
0.09999783
0.09999862
0.09999921
0.09999959
0.09999981
0.09999992
0.09999996
0.09999998
0.09999999
0.1
0.1
0.1
0.1
0.1
0.0999907
0.09999167
0.0999925
0.09999327
0.0999941
0.09999502
0.09999602
0.09999706
0.09999794
0.09999862
0.09999909
0.0999994
0.0999996
0.09999972
0.09999981
0.09999987
0.09999991
0.09999995
0.09999997
0.09999999
0.0999916
0.09999262
0.09999351
0.09999425
0.09999487
0.0999954
0.09999584
0.09999621
0.09999653
0.0999968
0.09999703
0.09999722
0.09999738
0.09999751
0.09999763
0.09999774
0.09999783
0.0999979
0.09999795
0.09999797
0.09999172
0.09999275
0.09999363
0.09999438
0.099995
0.09999552
0.09999595
0.09999632
0.09999663
0.0999969
0.09999712
0.09999731
0.09999746
0.09999759
0.09999769
0.09999779
0.09999787
0.09999794
0.09999798
0.099998
0.09999092
0.09999189
0.09999273
0.0999935
0.09999431
0.09999522
0.09999622
0.09999724
0.09999811
0.09999877
0.09999922
0.09999949
0.09999966
0.09999976
0.09999983
0.09999988
0.09999992
0.09999995
0.09999997
0.09999999
0.09999147
0.09999249
0.09999345
0.09999445
0.0999955
0.09999657
0.09999759
0.09999847
0.09999913
0.09999956
0.0999998
0.09999992
0.09999997
0.09999999
0.09999999
0.1
0.1
0.1
0.1
0.1
0.09999139
0.09999243
0.09999341
0.09999443
0.09999549
0.09999655
0.09999753
0.09999837
0.09999902
0.09999947
0.09999973
0.09999987
0.09999994
0.09999997
0.09999999
0.09999999
0.1
0.1
0.1
0.1
0.09999026
0.09999123
0.09999204
0.09999278
0.09999358
0.09999445
0.09999542
0.09999647
0.09999741
0.09999817
0.09999874
0.09999914
0.09999942
0.0999996
0.09999972
0.09999981
0.09999988
0.09999992
0.09999996
0.09999998
0.09999118
0.09999219
0.09999308
0.09999382
0.09999444
0.09999496
0.09999541
0.09999579
0.09999611
0.09999637
0.0999966
0.09999678
0.09999694
0.09999706
0.09999717
0.09999727
0.09999735
0.09999742
0.09999747
0.09999749
0.09999111
0.09999214
0.09999304
0.0999938
0.09999445
0.09999499
0.09999545
0.09999585
0.09999619
0.09999648
0.09999673
0.09999695
0.09999714
0.0999973
0.09999744
0.09999755
0.09999765
0.09999773
0.09999778
0.0999978
0.09999001
0.099991
0.0999919
0.09999277
0.09999371
0.09999473
0.09999583
0.09999694
0.09999792
0.09999869
0.09999922
0.09999954
0.09999972