# vtk DataFile Version 2.0
electrolyteSides
ASCII
DATASET POLYDATA
POINTS 792 float
0.0034137 0 0 0.0034391 0 0 0.0034391 0 0.001 0.0034137 0
0.001 0.0034391 0 0.002 0.0034137 0 0.002 0.0034391 0 0.003
0.0034137 0 0.003 0.0034391 0 0.004 0.0034137 0 0.004 0.0034391
0 0.005 0.0034137 0 0.005 0.0034391 0 0.006 0.0034137 0
0.006 0.0034391 0 0.007 0.0034137 0 0.007 0.0034391 0 0.008
0.0034137 0 0.008 0.0034391 0 0.009 0.0034137 0 0.009 0.0034391
0 0.01 0.0034137 0 0.01 0.0034391 0 0.011 0.0034137 0
0.011 0.0034391 0 0.012 0.0034137 0 0.012 0.0034391 0 0.013
0.0034137 0 0.013 0.0034391 0 0.014 0.0034137 0 0.014 0.0034391
0 0.015 0.0034137 0 0.015 0.0034391 0 0.016 0.0034137 0
0.016 0.0034391 0 0.017 0.0034137 0 0.017 0.0034391 0 0.018
0.0034137 0 0.018 0.0034391 0 0.019 0.0034137 0 0.019 0.0034391
0 0.02 0.0034137 0 0.02 0.0034391 0 0.021 0.0034137 0
0.021 0.0034391 0 0.022 0.0034137 0 0.022 0.0034645 0 0
0.0034645 0 0.001 0.0034645 0 0.002 0.0034645 0 0.003 0.0034645
0 0.004 0.0034645 0 0.005 0.0034645 0 0.006 0.0034645 0
0.007 0.0034645 0 0.008 0.0034645 0 0.009 0.0034645 0 0.01
0.0034645 0 0.011 0.0034645 0 0.012 0.0034645 0 0.013 0.0034645
0 0.014 0.0034645 0 0.015 0.0034645 0 0.016 0.0034645 0
0.017 0.0034645 0 0.018 0.0034645 0 0.019 0.0034645 0 0.02
0.0034645 0 0.021 0.0034645 0 0.022 0.0034899 0 0 0.0034899
0 0.001 0.0034899 0 0.002 0.0034899 0 0.003 0.0034899 0
0.004 0.0034899 0 0.005 0.0034899 0 0.006 0.0034899 0 0.007
0.0034899 0 0.008 0.0034899 0 0.009 0.0034899 0 0.01 0.0034899
0 0.011 0.0034899 0 0.012 0.0034899 0 0.013 0.0034899 0
0.014 0.0034899 0 0.015 0.0034899 0 0.016 0.0034899 0 0.017
0.0034899 0 0.018 0.0034899 0 0.019 0.0034899 0 0.02 0.0034899
0 0.021 0.0034899 0 0.022 0.0035153 0 0 0.0035153 0
0.001 0.0035153 0 0.002 0.0035153 0 0.003 0.0035153 0 0.004
0.0035153 0 0.005 0.0035153 0 0.006 0.0035153 0 0.007 0.0035153
0 0.008 0.0035153 0 0.009 0.0035153 0 0.01 0.0035153 0
0.011 0.0035153 0 0.012 0.0035153 0 0.013 0.0035153 0 0.014
0.0035153 0 0.015 0.0035153 0 0.016 0.0035153 0 0.017 0.0035153
0 0.018 0.0035153 0 0.019 0.0035153 0 0.02 0.0035153 0
0.021 0.0035153 0 0.022 0.0035407 0 0 0.0035407 0 0.001
0.0035407 0 0.002 0.0035407 0 0.003 0.0035407 0 0.004 0.0035407
0 0.005 0.0035407 0 0.006 0.0035407 0 0.007 0.0035407 0
0.008 0.0035407 0 0.009 0.0035407 0 0.01 0.0035407 0 0.011
0.0035407 0 0.012 0.0035407 0 0.013 0.0035407 0 0.014 0.0035407
0 0.015 0.0035407 0 0.016 0.0035407 0 0.017 0.0035407 0
0.018 0.0035407 0 0.019 0.0035407 0 0.02 0.0035407 0 0.021
0.0035407 0 0.022 0.0034137 0.022 0 0.0034137 0.022 0.001 0.0034391
0.022 0.001 0.0034391 0.022 0 0.0034137 0.022 0.002 0.0034391 0.022
0.002 0.0034137 0.022 0.003 0.0034391 0.022 0.003 0.0034137 0.022 0.004
0.0034391 0.022 0.004 0.0034137 0.022 0.005 0.0034391 0.022 0.005 0.0034137
0.022 0.006 0.0034391 0.022 0.006 0.0034137 0.022 0.007 0.0034391 0.022
0.007 0.0034137 0.022 0.008 0.0034391 0.022 0.008 0.0034137 0.022 0.009
0.0034391 0.022 0.009 0.0034137 0.022 0.01 0.0034391 0.022 0.01 0.0034137
0.022 0.011 0.0034391 0.022 0.011 0.0034137 0.022 0.012 0.0034391 0.022
0.012 0.0034137 0.022 0.013 0.0034391 0.022 0.013 0.0034137 0.022 0.014
0.0034391 0.022 0.014 0.0034137 0.022 0.015 0.0034391 0.022 0.015 0.0034137
0.022 0.016 0.0034391 0.022 0.016 0.0034137 0.022 0.017 0.0034391 0.022
0.017 0.0034137 0.022 0.018 0.0034391 0.022 0.018 0.0034137 0.022 0.019
0.0034391 0.022 0.019 0.0034137 0.022 0.02 0.0034391 0.022 0.02 0.0034137
0.022 0.021 0.0034391 0.022 0.021 0.0034137 0.022 0.022 0.0034391 0.022
0.022 0.0034645 0.022 0.001 0.0034645 0.022 0 0.0034645 0.022 0.002
0.0034645 0.022 0.003 0.0034645 0.022 0.004 0.0034645 0.022 0.005 0.0034645
0.022 0.006 0.0034645 0.022 0.007 0.0034645 0.022 0.008 0.0034645 0.022
0.009 0.0034645 0.022 0.01 0.0034645 0.022 0.011 0.0034645 0.022 0.012
0.0034645 0.022 0.013 0.0034645 0.022 0.014 0.0034645 0.022 0.015 0.0034645
0.022 0.016 0.0034645 0.022 0.017 0.0034645 0.022 0.018 0.0034645 0.022
0.019 0.0034645 0.022 0.02 0.0034645 0.022 0.021 0.0034645 0.022 0.022
0.0034899 0.022 0.001 0.0034899 0.022 0 0.0034899 0.022 0.002 0.0034899
0.022 0.003 0.0034899 0.022 0.004 0.0034899 0.022 0.005 0.0034899 0.022
0.006 0.0034899 0.022 0.007 0.0034899 0.022 0.008 0.0034899 0.022 0.009
0.0034899 0.022 0.01 0.0034899 0.022 0.011 0.0034899 0.022 0.012 0.0034899
0.022 0.013 0.0034899 0.022 0.014 0.0034899 0.022 0.015 0.0034899 0.022
0.016 0.0034899 0.022 0.017 0.0034899 0.022 0.018 0.0034899 0.022 0.019
0.0034899 0.022 0.02 0.0034899 0.022 0.021 0.0034899 0.022 0.022 0.0035153
0.022 0.001 0.0035153 0.022 0 0.0035153 0.022 0.002 0.0035153 0.022
0.003 0.0035153 0.022 0.004 0.0035153 0.022 0.005 0.0035153 0.022 0.006
0.0035153 0.022 0.007 0.0035153 0.022 0.008 0.0035153 0.022 0.009 0.0035153
0.022 0.01 0.0035153 0.022 0.011 0.0035153 0.022 0.012 0.0035153 0.022
0.013 0.0035153 0.022 0.014 0.0035153 0.022 0.015 0.0035153 0.022 0.016
0.0035153 0.022 0.017 0.0035153 0.022 0.018 0.0035153 0.022 0.019 0.0035153
0.022 0.02 0.0035153 0.022 0.021 0.0035153 0.022 0.022 0.0035407 0.022
0.001 0.0035407 0.022 0 0.0035407 0.022 0.002 0.0035407 0.022 0.003
0.0035407 0.022 0.004 0.0035407 0.022 0.005 0.0035407 0.022 0.006 0.0035407
0.022 0.007 0.0035407 0.022 0.008 0.0035407 0.022 0.009 0.0035407 0.022
0.01 0.0035407 0.022 0.011 0.0035407 0.022 0.012 0.0035407 0.022 0.013
0.0035407 0.022 0.014 0.0035407 0.022 0.015 0.0035407 0.022 0.016 0.0035407
0.022 0.017 0.0035407 0.022 0.018 0.0035407 0.022 0.019 0.0035407 0.022
0.02 0.0035407 0.022 0.021 0.0035407 0.022 0.022 0.0034137 0.0005 0
0.0034391 0.0005 0 0.0034137 0.001 0 0.0034391 0.001 0 0.0034137
0.0015 0 0.0034391 0.0015 0 0.0034137 0.002 0 0.0034391 0.002
0 0.0034137 0.0025 0 0.0034391 0.0025 0 0.0034137 0.003 0
0.0034391 0.003 0 0.0034137 0.0035 0 0.0034391 0.0035 0 0.0034137
0.004 0 0.0034391 0.004 0 0.0034137 0.0045 0 0.0034391 0.0045
0 0.0034137 0.005 0 0.0034391 0.005 0 0.0034137 0.0055 0
0.0034391 0.0055 0 0.0034137 0.006 0 0.0034391 0.006 0 0.0034137
0.0065 0 0.0034391 0.0065 0 0.0034137 0.007 0 0.0034391 0.007
0 0.0034137 0.0075 0 0.0034391 0.0075 0 0.0034137 0.008 0
0.0034391 0.008 0 0.0034137 0.0085 0 0.0034391 0.0085 0 0.0034137
0.009 0 0.0034391 0.009 0 0.0034137 0.0095 0 0.0034391 0.0095
0 0.0034137 0.01 0 0.0034391 0.01 0 0.0034137 0.0105 0
0.0034391 0.0105 0 0.0034137 0.011 0 0.0034391 0.011 0 0.0034137
0.0115 0 0.0034391 0.0115 0 0.0034137 0.012 0 0.0034391 0.012
0 0.0034137 0.0125 0 0.0034391 0.0125 0 0.0034137 0.013 0
0.0034391 0.013 0 0.0034137 0.0135 0 0.0034391 0.0135 0 0.0034137
0.014 0 0.0034391 0.014 0 0.0034137 0.0145 0 0.0034391 0.0145
0 0.0034137 0.015 0 0.0034391 0.015 0 0.0034137 0.0155 0
0.0034391 0.0155 0 0.0034137 0.016 0 0.0034391 0.016 0 0.0034137
0.0165 0 0.0034391 0.0165 0 0.0034137 0.017 0 0.0034391 0.017
0 0.0034137 0.0175 0 0.0034391 0.0175 0 0.0034137 0.018 0
0.0034391 0.018 0 0.0034137 0.0185 0 0.0034391 0.0185 0 0.0034137
0.019 0 0.0034391 0.019 0 0.0034137 0.0195 0 0.0034391 0.0195
0 0.0034137 0.02 0 0.0034391 0.02 0 0.0034137 0.0205 0
0.0034391 0.0205 0 0.0034137 0.021 0 0.0034391 0.021 0 0.0034137
0.0215 0 0.0034391 0.0215 0 0.0034645 0.0005 0 0.0034645 0.001
0 0.0034645 0.0015 0 0.0034645 0.002 0 0.0034645 0.0025 0
0.0034645 0.003 0 0.0034645 0.0035 0 0.0034645 0.004 0 0.0034645
0.0045 0 0.0034645 0.005 0 0.0034645 0.0055 0 0.0034645 0.006
0 0.0034645 0.0065 0 0.0034645 0.007 0 0.0034645 0.0075 0
0.0034645 0.008 0 0.0034645 0.0085 0 0.0034645 0.009 0 0.0034645
0.0095 0 0.0034645 0.01 0 0.0034645 0.0105 0 0.0034645 0.011
0 0.0034645 0.0115 0 0.0034645 0.012 0 0.0034645 0.0125 0
0.0034645 0.013 0 0.0034645 0.0135 0 0.0034645 0.014 0 0.0034645
0.0145 0 0.0034645 0.015 0 0.0034645 0.0155 0 0.0034645 0.016
0 0.0034645 0.0165 0 0.0034645 0.017 0 0.0034645 0.0175 0
0.0034645 0.018 0 0.0034645 0.0185 0 0.0034645 0.019 0 0.0034645
0.0195 0 0.0034645 0.02 0 0.0034645 0.0205 0 0.0034645 0.021
0 0.0034645 0.0215 0 0.0034899 0.0005 0 0.0034899 0.001 0
0.0034899 0.0015 0 0.0034899 0.002 0 0.0034899 0.0025 0 0.0034899
0.003 0 0.0034899 0.0035 0 0.0034899 0.004 0 0.0034899 0.0045
0 0.0034899 0.005 0 0.0034899 0.0055 0 0.0034899 0.006 0
0.0034899 0.0065 0 0.0034899 0.007 0 0.0034899 0.0075 0 0.0034899
0.008 0 0.0034899 0.0085 0 0.0034899 0.009 0 0.0034899 0.0095
0 0.0034899 0.01 0 0.0034899 0.0105 0 0.0034899 0.011 0
0.0034899 0.0115 0 0.0034899 0.012 0 0.0034899 0.0125 0 0.0034899
0.013 0 0.0034899 0.0135 0 0.0034899 0.014 0 0.0034899 0.0145
0 0.0034899 0.015 0 0.0034899 0.0155 0 0.0034899 0.016 0
0.0034899 0.0165 0 0.0034899 0.017 0 0.0034899 0.0175 0 0.0034899
0.018 0 0.0034899 0.0185 0 0.0034899 0.019 0 0.0034899 0.0195
0 0.0034899 0.02 0 0.0034899 0.0205 0 0.0034899 0.021 0
0.0034899 0.0215 0 0.0035153 0.0005 0 0.0035153 0.001 0 0.0035153
0.0015 0 0.0035153 0.002 0 0.0035153 0.0025 0 0.0035153 0.003
0 0.0035153 0.0035 0 0.0035153 0.004 0 0.0035153 0.0045 0
0.0035153 0.005 0 0.0035153 0.0055 0 0.0035153 0.006 0 0.0035153
0.0065 0 0.0035153 0.007 0 0.0035153 0.0075 0 0.0035153 0.008
0 0.0035153 0.0085 0 0.0035153 0.009 0 0.0035153 0.0095 0
0.0035153 0.01 0 0.0035153 0.0105 0 0.0035153 0.011 0 0.0035153
0.0115 0 0.0035153 0.012 0 0.0035153 0.0125 0 0.0035153 0.013
0 0.0035153 0.0135 0 0.0035153 0.014 0 0.0035153 0.0145 0
0.0035153 0.015 0 0.0035153 0.0155 0 0.0035153 0.016 0 0.0035153
0.0165 0 0.0035153 0.017 0 0.0035153 0.0175 0 0.0035153 0.018
0 0.0035153 0.0185 0 0.0035153 0.019 0 0.0035153 0.0195 0
0.0035153 0.02 0 0.0035153 0.0205 0 0.0035153 0.021 0 0.0035153
0.0215 0 0.0035407 0.0005 0 0.0035407 0.001 0 0.0035407 0.0015
0 0.0035407 0.002 0 0.0035407 0.0025 0 0.0035407 0.003 0
0.0035407 0.0035 0 0.0035407 0.004 0 0.0035407 0.0045 0 0.0035407
0.005 0 0.0035407 0.0055 0 0.0035407 0.006 0 0.0035407 0.0065
0 0.0035407 0.007 0 0.0035407 0.0075 0 0.0035407 0.008 0
0.0035407 0.0085 0 0.0035407 0.009 0 0.0035407 0.0095 0 0.0035407
0.01 0 0.0035407 0.0105 0 0.0035407 0.011 0 0.0035407 0.0115
0 0.0035407 0.012 0 0.0035407 0.0125 0 0.0035407 0.013 0
[...]
CELL_DATA 660
FIELD attributes 4
patchID 1 660 float
7 7 7 7 7 7 7 7 7 7 7
7 7 7 7 7 7 7 7 7 7
7 7 7 7 7 7 7 7 7 7
7 7 7 7 7 7 7 7 7 7
7 7 7 7 7 7 7 7 7 7
7 7 7 7 7 7 7 7 7 7
7 7 7 7 7 7 7 7 7 7
7 7 7 7 7 7 7 7 7 7
7 7 7 7 7 7 7 7 7 7
7 7 7 7 7 7 7 7 7 7
7 7 7 7 7 7 7 7 7 7
7 7 7 7 7 7 7 7 7 7
7 7 7 7 7 7 7 7 7 7
7 7 7 7 7 7 7 7 7 7
7 7 7 7 7 7 7 7 7 7
7 7 7 7 7 7 7 7 7 7
7 7 7 7 7 7 7 7 7 7
7 7 7 7 7 7 7 7 7 7
7 7 7 7 7 7 7 7 7 7
7 7 7 7 7 7 7 7 7 7
7 7 7 7 7 7 7 7 7 7
7 7 7 7 7 7 7 7 7 7
7 7 7 7 7 7 7 7 7 7
7 7 7 7 7 7 7 7 7 7
7 7 7 7 7 7 7 7 7 7
7 7 7 7 7 7 7 7 7 7
7 7 7 7 7 7 7 7 7 7
7 7 7 7 7 7 7 7 7 7
7 7 7 7 7 7 7 7 7 7
7 7 7 7 7 7 7 7 7 7
7 7 7 7 7 7 7 7 7 7
7 7 7 7 7 7 7 7 7 7
7 7 7 7 7 7 7 7 7 7
7 7 7 7 7 7 7 7 7 7
7 7 7 7 7 7 7 7 7 7
7 7 7 7 7 7 7 7 7 7
7 7 7 7 7 7 7 7 7 7
7 7 7 7 7 7 7 7 7 7
7 7 7 7 7 7 7 7 7 7
7 7 7 7 7 7 7 7 7 7
7 7 7 7 7 7 7 7 7 7
7 7 7 7 7 7 7 7 7 7
7 7 7 7 7 7 7 7 7 7
7 7 7 7 7 7 7 7 7 7
7 7 7 7 7 7 7 7 7 7
7 7 7 7 7 7 7 7 7 7
7 7 7 7 7 7 7 7 7 7
7 7 7 7 7 7 7 7 7 7
7 7 7 7 7 7 7 7 7 7
7 7 7 7 7 7 7 7 7 7
7 7 7 7 7 7 7 7 7 7
7 7 7 7 7 7 7 7 7 7
7 7 7 7 7 7 7 7 7 7
7 7 7 7 7 7 7 7 7 7
7 7 7 7 7 7 7 7 7 7
7 7 7 7 7 7 7 7 7 7
7 7 7 7 7 7 7 7 7 7
7 7 7 7 7 7 7 7 7 7
7 7 7 7 7 7 7 7 7 7
7 7 7 7 7 7 7 7 7 7
7 7 7 7 7 7 7 7 7 7
7 7 7 7 7 7 7 7 7 7
7 7 7 7 7 7 7 7 7 7
7 7 7 7 7 7 7 7 7 7
7 7 7 7 7 7 7 7 7 7
7 7 7 7 7 7 7 7 7 
T 1 660 float
353.192 353.195 353.199 353.203 353.207 353.211 353.214 353.218 353.222 353.225 353.229
353.232 353.235 353.238 353.24 353.243 353.245 353.247 353.248 353.249 353.25
353.251 353.192 353.195 353.199 353.203 353.207 353.211 353.215 353.218 353.222
353.225 353.229 353.232 353.235 353.238 353.241 353.243 353.245 353.247 353.248
353.25 353.25 353.251 353.192 353.195 353.199 353.203 353.207 353.211 353.215
353.218 353.222 353.225 353.229 353.232 353.235 353.238 353.241 353.243 353.245
353.247 353.248 353.25 353.25 353.251 353.192 353.195 353.199 353.203 353.207
353.211 353.214 353.218 353.222 353.225 353.229 353.232 353.235 353.238 353.24
353.243 353.245 353.247 353.248 353.249 353.25 353.251 353.191 353.194 353.198
353.202 353.206 353.21 353.214 353.218 353.221 353.225 353.228 353.232 353.234
353.237 353.24 353.242 353.244 353.246 353.248 353.249 353.25 353.25 353.192
353.195 353.199 353.203 353.207 353.211 353.214 353.218 353.222 353.225 353.229
353.232 353.235 353.238 353.24 353.243 353.245 353.247 353.248 353.249 353.25
353.251 353.192 353.195 353.199 353.203 353.207 353.211 353.215 353.218 353.222
353.225 353.229 353.232 353.235 353.238 353.241 353.243 353.245 353.247 353.248
353.25 353.25 353.251 353.192 353.195 353.199 353.203 353.207 353.211 353.215
353.218 353.222 353.225 353.229 353.232 353.235 353.238 353.241 353.243 353.245
353.247 353.248 353.25 353.25 353.251 353.192 353.195 353.199 353.203 353.207
353.211 353.214 353.218 353.222 353.225 353.229 353.232 353.235 353.238 353.24
353.243 353.245 353.247 353.248 353.249 353.25 353.251 353.191 353.194 353.198
353.202 353.206 353.21 353.214 353.218 353.221 353.225 353.228 353.232 353.234
353.237 353.24 353.242 353.244 353.246 353.248 353.249 353.25 353.25 353.192
353.183 353.155 353.14 353.139 353.152 353.176 353.176 353.151 353.137 353.137
353.151 353.174 353.174 353.15 353.137 353.137 353.15 353.174 353.174 353.15
353.136 353.136 353.15 353.174 353.174 353.15 353.137 353.137 353.151 353.174
353.174 353.151 353.137 353.137 353.151 353.176 353.176 353.152 353.139 353.14
353.155 353.183 353.192 353.192 353.183 353.155 353.14 353.139 353.152 353.176
353.176 353.151 353.137 353.137 353.151 353.175 353.174 353.151 353.137 353.137
353.15 353.174 353.174 353.15 353.137 353.137 353.15 353.174 353.174 353.15
353.137 353.137 353.151 353.174 353.175 353.151 353.137 353.137 353.151 353.176
353.176 353.152 353.139 353.14 353.155 353.183 353.192 353.192 353.183 353.155
353.139 353.138 353.152 353.176 353.176 353.151 353.137 353.137 353.151 353.174
353.174 353.15 353.136 353.136 353.15 353.174 353.174 353.15 353.136 353.136
353.15 353.174 353.174 353.15 353.136 353.136 353.15 353.174 353.175 353.151
353.137 353.137 353.151 353.176 353.176 353.152 353.138 353.139 353.155 353.183
353.192 353.192 353.183 353.155 353.139 353.138 353.151 353.176 353.176 353.151
353.137 353.136 353.15 353.174 353.174 353.15 353.136 353.136 353.15 353.174
353.174 353.15 353.136 353.136 353.15 353.174 353.174 353.15 353.136 353.136
353.15 353.174 353.174 353.15 353.136 353.137 353.151 353.175 353.176 353.151
353.138 353.139 353.155 353.183 353.192 353.191 353.183 353.154 353.138 353.137
353.151 353.175 353.175 353.15 353.136 353.136 353.149 353.174 353.174 353.149
353.135 353.135 353.149 353.173 353.173 353.149 353.135 353.135 353.149 353.173
353.173 353.149 353.135 353.135 353.149 353.174 353.174 353.149 353.136 353.136
353.15 353.175 353.175 353.151 353.137 353.138 353.154 353.183 353.191 353.251
353.254 353.265 353.272 353.272 353.267 353.256 353.256 353.267 353.273 353.273
353.267 353.256 353.256 353.267 353.273 353.273 353.267 353.256 353.256 353.267
353.273 353.273 353.267 353.256 353.256 353.267 353.273 353.273 353.267 353.256
353.256 353.267 353.273 353.273 353.267 353.256 353.256 353.267 353.272 353.272
353.265 353.254 353.251 353.251 353.254 353.266 353.272 353.273 353.267 353.257
353.257 353.267 353.273 353.273 353.267 353.257 353.256 353.267 353.273 353.273
353.267 353.256 353.256 353.267 353.273 353.273 353.267 353.256 353.256 353.267
353.273 353.273 353.267 353.256 353.257 353.267 353.273 353.273 353.267 353.257
353.257 353.267 353.273 353.272 353.266 353.254 353.251 353.251 353.254 353.266
353.272 353.273 353.267 353.257 353.257 353.267 353.273 353.273 353.267 353.257
353.256 353.267 353.273 353.273 353.267 353.256 353.256 353.267 353.273 353.273
353.267 353.256 353.256 353.267 353.273 353.273 353.267 353.256 353.257 353.267
353.273 353.273 353.267 353.257 353.257 353.267 353.273 353.272 353.266 353.254
353.251 353.251 353.254 353.266 353.272 353.273 353.267 353.256 353.256 353.267
353.273 353.273 353.267 353.256 353.256 353.267 353.273 353.273 353.267 353.256
353.256 353.267 353.273 353.273 353.267 353.256 353.256 353.267 353.273 353.273
353.267 353.256 353.256 353.267 353.273 353.273 353.267 353.256 353.256 353.267
353.273 353.272 353.265 353.254 353.251 353.25 353.254 353.265 353.272 353.272
353.267 353.256 353.256 353.267 353.273 353.273 353.267 353.256 353.256 353.267
353.273 353.273 353.267 353.256 353.256 353.267 353.273 353.273 353.267 353.256
353.256 353.267 353.273 353.273 353.267 353.256 353.256 353.267 353.273 353.273
353.267 353.256 353.256 353.267 353.272 353.272 353.265 353.254 353.25 
Tsource 1 660 float
0 0 0 0 0 0 0 0 0 0 0
0 0 0 0 0 0 0 0 0 0
0 0 0 0 0 0 0 0 0 0
0 0 0 0 0 0 0 0 0 0
0 0 0 0 0 0 0 0 0 0
0 0 0 0 0 0 0 0 0 0
0 0 0 0 0 0 0 0 0 0
0 0 0 0 0 0 0 0 0 0
0 0 0 0 0 0 0 0 0 0
0 0 0 0 0 0 0 0 0 0
0 0 0 0 0 0 0 0 0 0
0 0 0 0 0 0 0 0 0 0
0 0 0 0 0 0 0 0 0 0
0 0 0 0 0 0 0 0 0 0
0 0 0 0 0 0 0 0 0 0
0 0 0 0 0 0 0 0 0 0
0 0 0 0 0 0 0 0 0 0
0 0 0 0 0 0 0 0 0 0
0 0 0 0 0 0 0 0 0 0
0 0 0 0 0 0 0 0 0 0
0 0 0 0 0 0 0 0 0 0
0 0 0 0 0 0 0 0 0 0
0 0 0 0 0 0 0 0 0 0
0 0 0 0 0 0 0 0 0 0
0 0 0 0 0 0 0 0 0 0
0 0 0 0 0 0 0 0 0 0
0 0 0 0 0 0 0 0 0 0
0 0 0 0 0 0 0 0 0 0
0 0 0 0 0 0 0 0 0 0
0 0 0 0 0 0 0 0 0 0
0 0 0 0 0 0 0 0 0 0
0 0 0 0 0 0 0 0 0 0
0 0 0 0 0 0 0 0 0 0
0 0 0 0 0 0 0 0 0 0
0 0 0 0 0 0 0 0 0 0
0 0 0 0 0 0 0 0 0 0
0 0 0 0 0 0 0 0 0 0
0 0 0 0 0 0 0 0 0 0
0 0 0 0 0 0 0 0 0 0
0 0 0 0 0 0 0 0 0 0
0 0 0 0 0 0 0 0 0 0
0 0 0 0 0 0 0 0 0 0
0 0 0 0 0 0 0 0 0 0
0 0 0 0 0 0 0 0 0 0
0 0 0 0 0 0 0 0 0 0
0 0 0 0 0 0 0 0 0 0
0 0 0 0 0 0 0 0 0 0
0 0 0 0 0 0 0 0 0 0
0 0 0 0 0 0 0 0 0 0
0 0 0 0 0 0 0 0 0 0
0 0 0 0 0 0 0 0 0 0
0 0 0 0 0 0 0 0 0 0
0 0 0 0 0 0 0 0 0 0
0 0 0 0 0 0 0 0 0 0
0 0 0 0 0 0 0 0 0 0
0 0 0 0 0 0 0 0 0 0
0 0 0 0 0 0 0 0 0 0
0 0 0 0 0 0 0 0 0 0
0 0 0 0 0 0 0 0 0 0
0 0 0 0 0 0 0 0 0 0
0 0 0 0 0 0 0 0 0 0
0 0 0 0 0 0 0 0 0 0
0 0 0 0 0 0 0 0 0 0
0 0 0 0 0 0 0 0 0 0
0 0 0 0 0 0 0 0 0 0
0 0 0 0 0 0 0 0 0 
k 1 660 float
0.67 0.67 0.67 0.67 0.67 0.67 0.67 0.67 0.67 0.67 0.67
0.67 0.67 0.67 0.67 0.67 0.67 0.67 0.67 0.67 0.67
0.67 0.67 0.67 0.67 0.67 0.67 0.67 0.67 0.67 0.67
0.67 0.67 0.67 0.67 0.67 0.67 0.67 0.67 0.67 0.67
0.67 0.67 0.67 0.67 0.67 0.67 0.67 0.67 0.67 0.67
0.67 0.67 0.67 0.67 0.67 0.67 0.67 0.67 0.67 0.67
0.67 0.67 0.67 0.67 0.67 0.67 0.67 0.67 0.67 0.67
0.67 0.67 0.67 0.67 0.67 0.67 0.67 0.67 0.67 0.67
0.67 0.67 0.67 0.67 0.67 0.67 0.67 0.67 0.67 0.67
0.67 0.67 0.67 0.67 0.67 0.67 0.67 0.67 0.67 0.67
0.67 0.67 0.67 0.67 0.67 0.67 0.67 0.67 0.67 0.67
0.67 0.67 0.67 0.67 0.67 0.67 0.67 0.67 0.67 0.67
0.67 0.67 0.67 0.67 0.67 0.67 0.67 0.67 0.67 0.67
0.67 0.67 0.67 0.67 0.67 0.67 0.67 0.67 0.67 0.67
0.67 0.67 0.67 0.67 0.67 0.67 0.67 0.67 0.67 0.67
0.67 0.67 0.67 0.67 0.67 0.67 0.67 0.67 0.67 0.67
0.67 0.67 0.67 0.67 0.67 0.67 0.67 0.67 0.67 0.67
0.67 0.67 0.67 0.67 0.67 0.67 0.67 0.67 0.67 0.67
0.67 0.67 0.67 0.67 0.67 0.67 0.67 0.67 0.67 0.67
0.67 0.67 0.67 0.67 0.67 0.67 0.67 0.67 0.67 0.67
0.67 0.67 0.67 0.67 0.67 0.67 0.67 0.67 0.67 0.67
0.67 0.67 0.67 0.67 0.67 0.67 0.67 0.67 0.67 0.67
0.67 0.67 0.67 0.67 0.67 0.67 0.67 0.67 0.67 0.67
0.67 0.67 0.67 0.67 0.67 0.67 0.67 0.67 0.67 0.67
0.67 0.67 0.67 0.67 0.67 0.67 0.67 0.67 0.67 0.67
0.67 0.67 0.67 0.67 0.67 0.67 0.67 0.67 0.67 0.67
0.67 0.67 0.67 0.67 0.67 0.67 0.67 0.67 0.67 0.67
0.67 0.67 0.67 0.67 0.67 0.67 0.67 0.67 0.67 0.67
0.67 0.67 0.67 0.67 0.67 0.67 0.67 0.67 0.67 0.67
0.67 0.67 0.67 0.67 0.67 0.67 0.67 0.67 0.67 0.67
0.67 0.67 0.67 0.67 0.67 0.67 0.67 0.67 0.67 0.67
0.67 0.67 0.67 0.67 0.67 0.67 0.67 0.67 0.67 0.67
0.67 0.67 0.67 0.67 0.67 0.67 0.67 0.67 0.67 0.67
0.67 0.67 0.67 0.67 0.67 0.67 0.67 0.67 0.67 0.67
0.67 0.67 0.67 0.67 0.67 0.67 0.67 0.67 0.67 0.67
0.67 0.67 0.67 0.67 0.67 0.67 0.67 0.67 0.67 0.67
0.67 0.67 0.67 0.67 0.67 0.67 0.67 0.67 0.67 0.67
0.67 0.67 0.67 0.67 0.67 0.67 0.67 0.67 0.67 0.67
0.67 0.67 0.67 0.67 0.67 0.67 0.67 0.67 0.67 0.67
0.67 0.67 0.67 0.67 0.67 0.67 0.67 0.67 0.67 0.67
0.67 0.67 0.67 0.67 0.67 0.67 0.67 0.67 0.67 0.67
0.67 0.67 0.67 0.67 0.67 0.67 0.67 0.67 0.67 0.67
0.67 0.67 0.67 0.67 0.67 0.67 0.67 0.67 0.67 0.67
0.67 0.67 0.67 0.67 0.67 0.67 0.67 0.67 0.67 0.67
0.67 0.67 0.67 0.67 0.67 0.67 0.67 0.67 0.67 0.67
0.67 0.67 0.67 0.67 0.67 0.67 0.67 0.67 0.67 0.67
0.67 0.67 0.67 0.67 0.67 0.67 0.67 0.67 0.67 0.67
0.67 0.67 0.67 0.67 0.67 0.67 0.67 0.67 0.67 0.67
0.67 0.67 0.67 0.67 0.67 0.67 0.67 0.67 0.67 0.67
0.67 0.67 0.67 0.67 0.67 0.67 0.67 0.67 0.67 0.67
0.67 0.67 0.67 0.67 0.67 0.67 0.67 0.67 0.67 0.67
0.67 0.67 0.67 0.67 0.67 0.67 0.67 0.67 0.67 0.67
0.67 0.67 0.67 0.67 0.67 0.67 0.67 0.67 0.67 0.67
0.67 0.67 0.67 0.67 0.67 0.67 0.67 0.67 0.67 0.67
0.67 0.67 0.67 0.67 0.67 0.67 0.67 0.67 0.67 0.67
0.67 0.67 0.67 0.67 0.67 0.67 0.67 0.67 0.67 0.67
0.67 0.67 0.67 0.67 0.67 0.67 0.67 0.67 0.67 0.67
0.67 0.67 0.67 0.67 0.67 0.67 0.67 0.67 0.67 0.67
0.67 0.67 0.67 0.67 0.67 0.67 0.67 0.67 0.67 0.67
0.67 0.67 0.67 0.67 0.67 0.67 0.67 0.67 0.67 0.67
0.67 0.67 0.67 0.67 0.67 0.67 0.67 0.67 0.67 0.67
0.67 0.67 0.67 0.67 0.67 0.67 0.67 0.67 0.67 0.67
0.67 0.67 0.67 0.67 0.67 0.67 0.67 0.67 0.67 0.67
0.67 0.67 0.67 0.67 0.67 0.67 0.67 0.67 0.67 0.67
0.67 0.67 0.67 0.67 0.67 0.67 0.67 0.67 0.67 0.67
0.67 0.67 0.67 0.67 0.67 0.67 0.67 0.67 0.67 
POINT_DATA  792
FIELD attributes 3
T 1 792 float
353.192 353.192 353.193 353.193 353.197 353.197 353.201 353.201 353.205 353.205 353.209
353.209 353.212 353.212 353.216 353.216 353.22 353.22 353.224 353.224 353.227
353.227 353.23 353.23 353.233 353.233 353.236 353.236 353.239 353.239 353.242
353.242 353.244 353.244 353.246 353.246 353.248 353.247 353.249 353.249 353.25
353.25 353.251 353.25 353.251 353.251 353.192 353.193 353.197 353.201 353.205
353.209 353.213 353.216 353.22 353.224 353.227 353.23 353.234 353.237 353.239
353.242 353.244 353.246 353.248 353.249 353.25 353.251 353.251 353.192 353.193
353.197 353.201 353.205 353.209 353.212 353.216 353.22 353.224 353.227 353.23
353.233 353.236 353.239 353.242 353.244 353.246 353.247 353.249 353.25 353.251
353.251 353.191 353.193 353.197 353.201 353.204 353.208 353.212 353.216 353.22
353.223 353.227 353.23 353.233 353.236 353.239 353.241 353.244 353.246 353.247
353.249 353.25 353.25 353.25 353.191 353.193 353.196 353.2 353.204 353.208
353.212 353.216 353.22 353.223 353.227 353.23 353.233 353.236 353.239 353.241
353.243 353.245 353.247 353.248 353.249 353.25 353.25 353.192 353.193 353.193
353.192 353.197 353.197 353.201 353.201 353.205 353.205 353.209 353.209 353.212
353.212 353.216 353.216 353.22 353.22 353.224 353.224 353.227 353.227 353.23
353.23 353.233 353.233 353.236 353.236 353.239 353.239 353.242 353.242 353.244
353.244 353.246 353.246 353.247 353.247 353.249 353.249 353.25 353.25 353.25
353.251 353.251 353.251 353.193 353.192 353.197 353.201 353.205 353.209 353.213
353.216 353.22 353.224 353.227 353.23 353.234 353.237 353.239 353.242 353.244
353.246 353.248 353.249 353.25 353.251 353.251 353.193 353.192 353.197 353.201
353.205 353.209 353.212 353.216 353.22 353.224 353.227 353.23 353.233 353.236
353.239 353.242 353.244 353.246 353.247 353.249 353.25 353.251 353.251 353.193
353.191 353.197 353.201 353.204 353.208 353.212 353.216 353.22 353.223 353.227
353.23 353.233 353.236 353.239 353.241 353.244 353.246 353.247 353.249 353.25
353.25 353.25 353.193 353.191 353.196 353.2 353.204 353.208 353.212 353.216
353.22 353.223 353.227 353.23 353.233 353.236 353.239 353.241 353.243 353.245
353.247 353.248 353.249 353.25 353.25 353.187 353.187 353.169 353.169 353.148
353.148 353.139 353.139 353.145 353.145 353.164 353.164 353.176 353.176 353.163
353.163 353.144 353.144 353.137 353.137 353.144 353.144 353.163 353.163 353.174
353.174 353.162 353.162 353.143 353.144 353.137 353.137 353.143 353.143 353.162
353.162 353.174 353.174 353.162 353.162 353.143 353.143 353.136 353.136 353.143
353.143 353.162 353.162 353.174 353.174 353.162 353.162 353.143 353.143 353.137
353.137 353.144 353.144 353.162 353.162 353.174 353.174 353.163 353.163 353.144
353.144 353.137 353.137 353.144 353.144 353.163 353.163 353.176 353.176 353.164
353.164 353.145 353.145 353.139 353.139 353.147 353.147 353.169 353.169 353.187
353.187 353.188 353.169 353.147 353.139 353.145 353.164 353.176 353.163 353.144
353.137 353.144 353.163 353.175 353.162 353.143 353.136 353.143 353.162 353.174
353.162 353.143 353.136 353.143 353.162 353.174 353.162 353.143 353.137 353.143
353.162 353.175 353.163 353.144 353.137 353.144 353.163 353.176 353.164 353.145
353.139 353.147 353.169 353.188 353.187 353.169 353.147 353.139 353.145 353.164
353.176 353.163 353.144 353.137 353.143 353.162 353.174 353.162 353.143 353.136
353.143 353.162 353.174 353.162 353.143 353.136 353.143 353.162 353.174 353.162
353.143 353.136 353.143 353.162 353.174 353.162 353.143 353.137 353.144 353.163
353.176 353.164 353.145 353.139 353.147 353.169 353.187 353.187 353.169 353.147
353.138 353.144 353.163 353.175 353.163 353.143 353.136 353.143 353.162 353.174
353.162 353.142 353.136 353.142 353.161 353.174 353.161 353.142 353.135 353.142
353.161 353.174 353.161 353.142 353.136 353.142 353.162 353.174 353.162 353.143
353.136 353.143 353.163 353.175 353.163 353.144 353.138 353.146 353.169 353.187
353.187 353.168 353.146 353.138 353.144 353.163 353.175 353.163 353.143 353.136
353.142 353.162 353.174 353.162 353.142 353.135 353.142 353.161 353.173 353.161
353.142 353.135 353.142 353.161 353.173 353.161 353.142 353.135 353.142 353.162
353.174 353.162 353.142 353.136 353.143 353.163 353.175 353.163 353.144 353.138
353.146 353.168 353.187 353.252 353.252 353.26 353.26 353.269 353.269 353.272
353.272 353.27 353.27 353.262 353.261 353.256 353.256 353.262 353.262 353.27
353.27 353.273 353.273 353.27 353.27 353.262 353.262 353.256 353.256 353.262
353.262 353.27 353.27 353.273 353.273 353.27 353.27 353.262 353.261 353.256
353.256 353.262 353.261 353.27 353.27 353.273 353.273 353.27 353.27 353.262
353.261 353.256 353.256 353.262 353.261 353.27 353.27 353.273 353.273 353.27
353.27 353.262 353.262 353.256 353.256 353.262 353.262 353.27 353.27 353.273
353.273 353.27 353.27 353.262 353.262 353.256 353.256 353.262 353.261 353.27
353.27 353.272 353.272 353.269 353.269 353.26 353.26 353.252 353.252 353.253
353.26 353.269 353.273 353.27 353.262 353.257 353.262 353.27 353.273 353.27
353.262 353.256 353.262 353.27 353.273 353.27 353.262 353.256 353.262 353.27
353.273 353.27 353.262 353.256 353.262 353.27 353.273 353.27 353.262 353.256
353.262 353.27 353.273 353.27 353.262 353.257 353.262 353.27 353.272 353.269
353.26 353.253 353.252 353.26 353.269 353.272 353.27 353.262 353.256 353.262
353.27 353.273 353.27 353.262 353.256 353.262 353.27 353.273 353.27 353.262
353.256 353.262 353.27 353.273 353.27 353.262 353.256 353.262 353.27 353.273
353.27 353.262 353.256 353.262 353.27 353.273 353.27 353.262 353.256 353.262
353.27 353.272 353.269 353.26 353.252 353.252 353.26 353.269 353.272 353.27
353.261 353.256 353.262 353.27 353.273 353.27 353.261 353.256 353.261 353.27
353.273 353.27 353.261 353.256 353.261 353.27 353.273 353.27 353.261 353.256
353.261 353.27 353.273 353.27 353.261 353.256 353.261 353.27 353.273 353.27
353.262 353.256 353.261 353.27 353.272 353.269 353.26 353.252 353.252 353.259
353.269 353.272 353.269 353.261 353.256 353.261 353.27 353.273 353.27 353.261
353.256 353.261 353.27 353.273 353.27 353.261 353.256 353.261 353.27 353.273
353.27 353.261 353.256 353.261 353.27 353.273 353.27 353.261 353.256 353.261
353.27 353.273 353.27 353.261 353.256 353.261 353.269 353.272 353.268 353.259
353.252 
Tsource 1 792 float
0 0 0 0 0 0 0 0 0 0 0
0 0 0 0 0 0 0 0 0 0
0 0 0 0 0 0 0 0 0 0
0 0 0 0 0 0 0 0 0 0
0 0 0 0 0 0 0 0 0 0
0 0 0 0 0 0 0 0 0 0
0 0 0 0 0 0 0 0 0 0
0 0 0 0 0 0 0 0 0 0
0 0 0 0 0 0 0 0 0 0
0 0 0 0 0 0 0 0 0 0
0 0 0 0 0 0 0 0 0 0
0 0 0 0 0 0 0 0 0 0
0 0 0 0 0 0 0 0 0 0
0 0 0 0 0 0 0 0 0 0
0 0 0 0 0 0 0 0 0 0
0 0 0 0 0 0 0 0 0 0
0 0 0 0 0 0 0 0 0 0
0 0 0 0 0 0 0 0 0 0
0 0 0 0 0 0 0 0 0 0
0 0 0 0 0 0 0 0 0 0
0 0 0 0 0 0 0 0 0 0
0 0 0 0 0 0 0 0 0 0
0 0 0 0 0 0 0 0 0 0
0 0 0 0 0 0 0 0 0 0
0 0 0 0 0 0 0 0 0 0
0 0 0 0 0 0 0 0 0 0
0 0 0 0 0 0 0 0 0 0
0 0 0 0 0 0 0 0 0 0
0 0 0 0 0 0 0 0 0 0
0 0 0 0 0 0 0 0 0 0
0 0 0 0 0 0 0 0 0 0
0 0 0 0 0 0 0 0 0 0
0 0 0 0 0 0 0 0 0 0
0 0 0 0 0 0 0 0 0 0
0 0 0 0 0 0 0 0 0 0
0 0 0 0 0 0 0 0 0 0
0 0 0 0 0 0 0 0 0 0
0 0 0 0 0 0 0 0 0 0
0 0 0 0 0 0 0 0 0 0
0 0 0 0 0 0 0 0 0 0
0 0 0 0 0 0 0 0 0 0
0 0 0 0 0 0 0 0 0 0
0 0 0 0 0 0 0 0 0 0
0 0 0 0 0 0 0 0 0 0
0 0 0 0 0 0 0 0 0 0
0 0 0 0 0 0 0 0 0 0
0 0 0 0 0 0 0 0 0 0
0 0 0 0 0 0 0 0 0 0
0 0 0 0 0 0 0 0 0 0
0 0 0 0 0 0 0 0 0 0
0 0 0 0 0 0 0 0 0 0
0 0 0 0 0 0 0 0 0 0
0 0 0 0 0 0 0 0 0 0
0 0 0 0 0 0 0 0 0 0
0 0 0 0 0 0 0 0 0 0
0 0 0 0 0 0 0 0 0 0
0 0 0 0 0 0 0 0 0 0
0 0 0 0 0 0 0 0 0 0
0 0 0 0 0 0 0 0 0 0
0 0 0 0 0 0 0 0 0 0
0 0 0 0 0 0 0 0 0 0
0 0 0 0 0 0 0 0 0 0
0 0 0 0 0 0 0 0 0 0
0 0 0 0 0 0 0 0 0 0
0 0 0 0 0 0 0 0 0 0
0 0 0 0 0 0 0 0 0 0
0 0 0 0 0 0 0 0 0 0
0 0 0 0 0 0 0 0 0 0
0 0 0 0 0 0 0 0 0 0
0 0 0 0 0 0 0 0 0 0
0 0 0 0 0 0 0 0 0 0
0 0 0 0 0 0 0 0 0 0
0 0 0 0 0 0 0 0 0 0
0 0 0 0 0 0 0 0 0 0
0 0 0 0 0 0 0 0 0 0
0 0 0 0 0 0 0 0 0 0
0 0 0 0 0 0 0 0 0 0
0 0 0 0 0 0 0 0 0 0
0 0 0 0 0 0 0 0 0 0
0 
k 1 792 float
0.67 0.67 0.67 0.67 0.67 0.67 0.67 0.67 0.67 0.67 0.67
0.67 0.67 0.67 0.67 0.67 0.67 0.67 0.67 0.67 0.67
0.67 0.67 0.67 0.67 0.67 0.67 0.67 0.67 0.67 0.67
0.67 0.67 0.67 0.67 0.67 0.67 0.67 0.67 0.67 0.67
0.67 0.67 0.67 0.67 0.67 0.67 0.67 0.67 0.67 0.67
0.67 0.67 0.67 0.67 0.67 0.67 0.67 0.67 0.67 0.67
0.67 0.67 0.67 0.67 0.67 0.67 0.67 0.67 0.67 0.67
0.67 0.67 0.67 0.67 0.67 0.67 0.67 0.67 0.67 0.67
0.67 0.67 0.67 0.67 0.67 0.67 0.67 0.67 0.67 0.67
0.67 0.67 0.67 0.67 0.67 0.67 0.67 0.67 0.67 0.67
0.67 0.67 0.67 0.67 0.67 0.67 0.67 0.67 0.67 0.67
0.67 0.67 0.67 0.67 0.67 0.67 0.67 0.67 0.67 0.67
0.67 0.67 0.67 0.67 0.67 0.67 0.67 0.67 0.67 0.67
0.67 0.67 0.67 0.67 0.67 0.67 0.67 0.67 0.67 0.67
0.67 0.67 0.67 0.67 0.67 0.67 0.67 0.67 0.67 0.67
0.67 0.67 0.67 0.67 0.67 0.67 0.67 0.67 0.67 0.67