# vtk DataFile Version 2.0
electrolyte_to_fuel
ASCII
DATASET POLYDATA
POINTS 1035 float
0.0035407 0 0 0.0035407 0.0005 0 0.0035407 0.0005 0.001 0.0035407 0
0.001 0.0035407 0.001 0 0.0035407 0.001 0.001 0.0035407 0.0015 0
0.0035407 0.0015 0.001 0.0035407 0.002 0 0.0035407 0.002 0.001 0.0035407
0.0025 0 0.0035407 0.0025 0.001 0.0035407 0.003 0 0.0035407 0.003
0.001 0.0035407 0.0035 0 0.0035407 0.0035 0.001 0.0035407 0.004 0
0.0035407 0.004 0.001 0.0035407 0.0045 0 0.0035407 0.0045 0.001 0.0035407
0.005 0 0.0035407 0.005 0.001 0.0035407 0.0055 0 0.0035407 0.0055
0.001 0.0035407 0.006 0 0.0035407 0.006 0.001 0.0035407 0.0065 0
0.0035407 0.0065 0.001 0.0035407 0.007 0 0.0035407 0.007 0.001 0.0035407
0.0075 0 0.0035407 0.0075 0.001 0.0035407 0.008 0 0.0035407 0.008
0.001 0.0035407 0.0085 0 0.0035407 0.0085 0.001 0.0035407 0.009 0
0.0035407 0.009 0.001 0.0035407 0.0095 0 0.0035407 0.0095 0.001 0.0035407
0.01 0 0.0035407 0.01 0.001 0.0035407 0.0105 0 0.0035407 0.0105
0.001 0.0035407 0.011 0 0.0035407 0.011 0.001 0.0035407 0.0115 0
0.0035407 0.0115 0.001 0.0035407 0.012 0 0.0035407 0.012 0.001 0.0035407
0.0125 0 0.0035407 0.0125 0.001 0.0035407 0.013 0 0.0035407 0.013
0.001 0.0035407 0.0135 0 0.0035407 0.0135 0.001 0.0035407 0.014 0
0.0035407 0.014 0.001 0.0035407 0.0145 0 0.0035407 0.0145 0.001 0.0035407
0.015 0 0.0035407 0.015 0.001 0.0035407 0.0155 0 0.0035407 0.0155
0.001 0.0035407 0.016 0 0.0035407 0.016 0.001 0.0035407 0.0165 0
0.0035407 0.0165 0.001 0.0035407 0.017 0 0.0035407 0.017 0.001 0.0035407
0.0175 0 0.0035407 0.0175 0.001 0.0035407 0.018 0 0.0035407 0.018
0.001 0.0035407 0.0185 0 0.0035407 0.0185 0.001 0.0035407 0.019 0
0.0035407 0.019 0.001 0.0035407 0.0195 0 0.0035407 0.0195 0.001 0.0035407
0.02 0 0.0035407 0.02 0.001 0.0035407 0.0205 0 0.0035407 0.0205
0.001 0.0035407 0.021 0 0.0035407 0.021 0.001 0.0035407 0.0215 0
0.0035407 0.0215 0.001 0.0035407 0.022 0 0.0035407 0.022 0.001 0.0035407
0.0005 0.002 0.0035407 0 0.002 0.0035407 0.001 0.002 0.0035407 0.0015
0.002 0.0035407 0.002 0.002 0.0035407 0.0025 0.002 0.0035407 0.003 0.002
0.0035407 0.0035 0.002 0.0035407 0.004 0.002 0.0035407 0.0045 0.002 0.0035407
0.005 0.002 0.0035407 0.0055 0.002 0.0035407 0.006 0.002 0.0035407 0.0065
0.002 0.0035407 0.007 0.002 0.0035407 0.0075 0.002 0.0035407 0.008 0.002
0.0035407 0.0085 0.002 0.0035407 0.009 0.002 0.0035407 0.0095 0.002 0.0035407
0.01 0.002 0.0035407 0.0105 0.002 0.0035407 0.011 0.002 0.0035407 0.0115
0.002 0.0035407 0.012 0.002 0.0035407 0.0125 0.002 0.0035407 0.013 0.002
0.0035407 0.0135 0.002 0.0035407 0.014 0.002 0.0035407 0.0145 0.002 0.0035407
0.015 0.002 0.0035407 0.0155 0.002 0.0035407 0.016 0.002 0.0035407 0.0165
0.002 0.0035407 0.017 0.002 0.0035407 0.0175 0.002 0.0035407 0.018 0.002
0.0035407 0.0185 0.002 0.0035407 0.019 0.002 0.0035407 0.0195 0.002 0.0035407
0.02 0.002 0.0035407 0.0205 0.002 0.0035407 0.021 0.002 0.0035407 0.0215
0.002 0.0035407 0.022 0.002 0.0035407 0.0005 0.003 0.0035407 0 0.003
0.0035407 0.001 0.003 0.0035407 0.0015 0.003 0.0035407 0.002 0.003 0.0035407
0.0025 0.003 0.0035407 0.003 0.003 0.0035407 0.0035 0.003 0.0035407 0.004
0.003 0.0035407 0.0045 0.003 0.0035407 0.005 0.003 0.0035407 0.0055 0.003
0.0035407 0.006 0.003 0.0035407 0.0065 0.003 0.0035407 0.007 0.003 0.0035407
0.0075 0.003 0.0035407 0.008 0.003 0.0035407 0.0085 0.003 0.0035407 0.009
0.003 0.0035407 0.0095 0.003 0.0035407 0.01 0.003 0.0035407 0.0105 0.003
0.0035407 0.011 0.003 0.0035407 0.0115 0.003 0.0035407 0.012 0.003 0.0035407
0.0125 0.003 0.0035407 0.013 0.003 0.0035407 0.0135 0.003 0.0035407 0.014
0.003 0.0035407 0.0145 0.003 0.0035407 0.015 0.003 0.0035407 0.0155 0.003
0.0035407 0.016 0.003 0.0035407 0.0165 0.003 0.0035407 0.017 0.003 0.0035407
0.0175 0.003 0.0035407 0.018 0.003 0.0035407 0.0185 0.003 0.0035407 0.019
0.003 0.0035407 0.0195 0.003 0.0035407 0.02 0.003 0.0035407 0.0205 0.003
0.0035407 0.021 0.003 0.0035407 0.0215 0.003 0.0035407 0.022 0.003 0.0035407
0.0005 0.004 0.0035407 0 0.004 0.0035407 0.001 0.004 0.0035407 0.0015
0.004 0.0035407 0.002 0.004 0.0035407 0.0025 0.004 0.0035407 0.003 0.004
0.0035407 0.0035 0.004 0.0035407 0.004 0.004 0.0035407 0.0045 0.004 0.0035407
0.005 0.004 0.0035407 0.0055 0.004 0.0035407 0.006 0.004 0.0035407 0.0065
0.004 0.0035407 0.007 0.004 0.0035407 0.0075 0.004 0.0035407 0.008 0.004
0.0035407 0.0085 0.004 0.0035407 0.009 0.004 0.0035407 0.0095 0.004 0.0035407
0.01 0.004 0.0035407 0.0105 0.004 0.0035407 0.011 0.004 0.0035407 0.0115
0.004 0.0035407 0.012 0.004 0.0035407 0.0125 0.004 0.0035407 0.013 0.004
0.0035407 0.0135 0.004 0.0035407 0.014 0.004 0.0035407 0.0145 0.004 0.0035407
0.015 0.004 0.0035407 0.0155 0.004 0.0035407 0.016 0.004 0.0035407 0.0165
0.004 0.0035407 0.017 0.004 0.0035407 0.0175 0.004 0.0035407 0.018 0.004
0.0035407 0.0185 0.004 0.0035407 0.019 0.004 0.0035407 0.0195 0.004 0.0035407
0.02 0.004 0.0035407 0.0205 0.004 0.0035407 0.021 0.004 0.0035407 0.0215
0.004 0.0035407 0.022 0.004 0.0035407 0.0005 0.005 0.0035407 0 0.005
0.0035407 0.001 0.005 0.0035407 0.0015 0.005 0.0035407 0.002 0.005 0.0035407
0.0025 0.005 0.0035407 0.003 0.005 0.0035407 0.0035 0.005 0.0035407 0.004
0.005 0.0035407 0.0045 0.005 0.0035407 0.005 0.005 0.0035407 0.0055 0.005
0.0035407 0.006 0.005 0.0035407 0.0065 0.005 0.0035407 0.007 0.005 0.0035407
0.0075 0.005 0.0035407 0.008 0.005 0.0035407 0.0085 0.005 0.0035407 0.009
0.005 0.0035407 0.0095 0.005 0.0035407 0.01 0.005 0.0035407 0.0105 0.005
0.0035407 0.011 0.005 0.0035407 0.0115 0.005 0.0035407 0.012 0.005 0.0035407
0.0125 0.005 0.0035407 0.013 0.005 0.0035407 0.0135 0.005 0.0035407 0.014
0.005 0.0035407 0.0145 0.005 0.0035407 0.015 0.005 0.0035407 0.0155 0.005
0.0035407 0.016 0.005 0.0035407 0.0165 0.005 0.0035407 0.017 0.005 0.0035407
0.0175 0.005 0.0035407 0.018 0.005 0.0035407 0.0185 0.005 0.0035407 0.019
0.005 0.0035407 0.0195 0.005 0.0035407 0.02 0.005 0.0035407 0.0205 0.005
0.0035407 0.021 0.005 0.0035407 0.0215 0.005 0.0035407 0.022 0.005 0.0035407
0.0005 0.006 0.0035407 0 0.006 0.0035407 0.001 0.006 0.0035407 0.0015
0.006 0.0035407 0.002 0.006 0.0035407 0.0025 0.006 0.0035407 0.003 0.006
0.0035407 0.0035 0.006 0.0035407 0.004 0.006 0.0035407 0.0045 0.006 0.0035407
0.005 0.006 0.0035407 0.0055 0.006 0.0035407 0.006 0.006 0.0035407 0.0065
0.006 0.0035407 0.007 0.006 0.0035407 0.0075 0.006 0.0035407 0.008 0.006
0.0035407 0.0085 0.006 0.0035407 0.009 0.006 0.0035407 0.0095 0.006 0.0035407
0.01 0.006 0.0035407 0.0105 0.006 0.0035407 0.011 0.006 0.0035407 0.0115
0.006 0.0035407 0.012 0.006 0.0035407 0.0125 0.006 0.0035407 0.013 0.006
0.0035407 0.0135 0.006 0.0035407 0.014 0.006 0.0035407 0.0145 0.006 0.0035407
0.015 0.006 0.0035407 0.0155 0.006 0.0035407 0.016 0.006 0.0035407 0.0165
0.006 0.0035407 0.017 0.006 0.0035407 0.0175 0.006 0.0035407 0.018 0.006
0.0035407 0.0185 0.006 0.0035407 0.019 0.006 0.0035407 0.0195 0.006 0.0035407
0.02 0.006 0.0035407 0.0205 0.006 0.0035407 0.021 0.006 0.0035407 0.0215
0.006 0.0035407 0.022 0.006 0.0035407 0.0005 0.007 0.0035407 0 0.007
0.0035407 0.001 0.007 0.0035407 0.0015 0.007 0.0035407 0.002 0.007 0.0035407
0.0025 0.007 0.0035407 0.003 0.007 0.0035407 0.0035 0.007 0.0035407 0.004
0.007 0.0035407 0.0045 0.007 0.0035407 0.005 0.007 0.0035407 0.0055 0.007
0.0035407 0.006 0.007 0.0035407 0.0065 0.007 0.0035407 0.007 0.007 0.0035407
0.0075 0.007 0.0035407 0.008 0.007 0.0035407 0.0085 0.007 0.0035407 0.009
0.007 0.0035407 0.0095 0.007 0.0035407 0.01 0.007 0.0035407 0.0105 0.007
0.0035407 0.011 0.007 0.0035407 0.0115 0.007 0.0035407 0.012 0.007 0.0035407
0.0125 0.007 0.0035407 0.013 0.007 0.0035407 0.0135 0.007 0.0035407 0.014
0.007 0.0035407 0.0145 0.007 0.0035407 0.015 0.007 0.0035407 0.0155 0.007
0.0035407 0.016 0.007 0.0035407 0.0165 0.007 0.0035407 0.017 0.007 0.0035407
0.0175 0.007 0.0035407 0.018 0.007 0.0035407 0.0185 0.007 0.0035407 0.019
0.007 0.0035407 0.0195 0.007 0.0035407 0.02 0.007 0.0035407 0.0205 0.007
0.0035407 0.021 0.007 0.0035407 0.0215 0.007 0.0035407 0.022 0.007 0.0035407
0.0005 0.008 0.0035407 0 0.008 0.0035407 0.001 0.008 0.0035407 0.0015
0.008 0.0035407 0.002 0.008 0.0035407 0.0025 0.008 0.0035407 0.003 0.008
0.0035407 0.0035 0.008 0.0035407 0.004 0.008 0.0035407 0.0045 0.008 0.0035407
0.005 0.008 0.0035407 0.0055 0.008 0.0035407 0.006 0.008 0.0035407 0.0065
0.008 0.0035407 0.007 0.008 0.0035407 0.0075 0.008 0.0035407 0.008 0.008
0.0035407 0.0085 0.008 0.0035407 0.009 0.008 0.0035407 0.0095 0.008 0.0035407
0.01 0.008 0.0035407 0.0105 0.008 0.0035407 0.011 0.008 0.0035407 0.0115
0.008 0.0035407 0.012 0.008 0.0035407 0.0125 0.008 0.0035407 0.013 0.008
0.0035407 0.0135 0.008 0.0035407 0.014 0.008 0.0035407 0.0145 0.008 0.0035407
0.015 0.008 0.0035407 0.0155 0.008 0.0035407 0.016 0.008 0.0035407 0.0165
0.008 0.0035407 0.017 0.008 0.0035407 0.0175 0.008 0.0035407 0.018 0.008
0.0035407 0.0185 0.008 0.0035407 0.019 0.008 0.0035407 0.0195 0.008 0.0035407
0.02 0.008 0.0035407 0.0205 0.008 0.0035407 0.021 0.008 0.0035407 0.0215
0.008 0.0035407 0.022 0.008 0.0035407 0.0005 0.009 0.0035407 0 0.009
0.0035407 0.001 0.009 0.0035407 0.0015 0.009 0.0035407 0.002 0.009 0.0035407
0.0025 0.009 0.0035407 0.003 0.009 0.0035407 0.0035 0.009 0.0035407 0.004
0.009 0.0035407 0.0045 0.009 0.0035407 0.005 0.009 0.0035407 0.0055 0.009
0.0035407 0.006 0.009 0.0035407 0.0065 0.009 0.0035407 0.007 0.009 0.0035407
0.0075 0.009 0.0035407 0.008 0.009 0.0035407 0.0085 0.009 0.0035407 0.009
0.009 0.0035407 0.0095 0.009 0.0035407 0.01 0.009 0.0035407 0.0105 0.009
0.0035407 0.011 0.009 0.0035407 0.0115 0.009 0.0035407 0.012 0.009 0.0035407
0.0125 0.009 0.0035407 0.013 0.009 0.0035407 0.0135 0.009 0.0035407 0.014
0.009 0.0035407 0.0145 0.009 0.0035407 0.015 0.009 0.0035407 0.0155 0.009
0.0035407 0.016 0.009 0.0035407 0.0165 0.009 0.0035407 0.017 0.009 0.0035407
0.0175 0.009 0.0035407 0.018 0.009 0.0035407 0.0185 0.009 0.0035407 0.019
0.009 0.0035407 0.0195 0.009 0.0035407 0.02 0.009 0.0035407 0.0205 0.009
0.0035407 0.021 0.009 0.0035407 0.0215 0.009 0.0035407 0.022 0.009 0.0035407
[...]
CELL_DATA 968
FIELD attributes 16
patchID 1 968 float
1 1 1 1 1 1 1 1 1 1 1
1 1 1 1 1 1 1 1 1 1
1 1 1 1 1 1 1 1 1 1
1 1 1 1 1 1 1 1 1 1
1 1 1 1 1 1 1 1 1 1
1 1 1 1 1 1 1 1 1 1
1 1 1 1 1 1 1 1 1 1
1 1 1 1 1 1 1 1 1 1
1 1 1 1 1 1 1 1 1 1
1 1 1 1 1 1 1 1 1 1
1 1 1 1 1 1 1 1 1 1
1 1 1 1 1 1 1 1 1 1
1 1 1 1 1 1 1 1 1 1
1 1 1 1 1 1 1 1 1 1
1 1 1 1 1 1 1 1 1 1
1 1 1 1 1 1 1 1 1 1
1 1 1 1 1 1 1 1 1 1
1 1 1 1 1 1 1 1 1 1
1 1 1 1 1 1 1 1 1 1
1 1 1 1 1 1 1 1 1 1
1 1 1 1 1 1 1 1 1 1
1 1 1 1 1 1 1 1 1 1
1 1 1 1 1 1 1 1 1 1
1 1 1 1 1 1 1 1 1 1
1 1 1 1 1 1 1 1 1 1
1 1 1 1 1 1 1 1 1 1
1 1 1 1 1 1 1 1 1 1
1 1 1 1 1 1 1 1 1 1
1 1 1 1 1 1 1 1 1 1
1 1 1 1 1 1 1 1 1 1
1 1 1 1 1 1 1 1 1 1
1 1 1 1 1 1 1 1 1 1
1 1 1 1 1 1 1 1 1 1
1 1 1 1 1 1 1 1 1 1
1 1 1 1 1 1 1 1 1 1
1 1 1 1 1 1 1 1 1 1
1 1 1 1 1 1 1 1 1 1
1 1 1 1 1 1 1 1 1 1
1 1 1 1 1 1 1 1 1 1
1 1 1 1 1 1 1 1 1 1
1 1 1 1 1 1 1 1 1 1
1 1 1 1 1 1 1 1 1 1
1 1 1 1 1 1 1 1 1 1
1 1 1 1 1 1 1 1 1 1
1 1 1 1 1 1 1 1 1 1
1 1 1 1 1 1 1 1 1 1
1 1 1 1 1 1 1 1 1 1
1 1 1 1 1 1 1 1 1 1
1 1 1 1 1 1 1 1 1 1
1 1 1 1 1 1 1 1 1 1
1 1 1 1 1 1 1 1 1 1
1 1 1 1 1 1 1 1 1 1
1 1 1 1 1 1 1 1 1 1
1 1 1 1 1 1 1 1 1 1
1 1 1 1 1 1 1 1 1 1
1 1 1 1 1 1 1 1 1 1
1 1 1 1 1 1 1 1 1 1
1 1 1 1 1 1 1 1 1 1
1 1 1 1 1 1 1 1 1 1
1 1 1 1 1 1 1 1 1 1
1 1 1 1 1 1 1 1 1 1
1 1 1 1 1 1 1 1 1 1
1 1 1 1 1 1 1 1 1 1
1 1 1 1 1 1 1 1 1 1
1 1 1 1 1 1 1 1 1 1
1 1 1 1 1 1 1 1 1 1
1 1 1 1 1 1 1 1 1 1
1 1 1 1 1 1 1 1 1 1
1 1 1 1 1 1 1 1 1 1
1 1 1 1 1 1 1 1 1 1
1 1 1 1 1 1 1 1 1 1
1 1 1 1 1 1 1 1 1 1
1 1 1 1 1 1 1 1 1 1
1 1 1 1 1 1 1 1 1 1
1 1 1 1 1 1 1 1 1 1
1 1 1 1 1 1 1 1 1 1
1 1 1 1 1 1 1 1 1 1
1 1 1 1 1 1 1 1 1 1
1 1 1 1 1 1 1 1 1 1
1 1 1 1 1 1 1 1 1 1
1 1 1 1 1 1 1 1 1 1
1 1 1 1 1 1 1 1 1 1
1 1 1 1 1 1 1 1 1 1
1 1 1 1 1 1 1 1 1 1
1 1 1 1 1 1 1 1 1 1
1 1 1 1 1 1 1 1 1 1
1 1 1 1 1 1 1 1 1 1
1 1 1 1 1 1 1 1 1 1
1 1 1 1 1 1 1 1 1 1
1 1 1 1 1 1 1 1 1 1
1 1 1 1 1 1 1 1 1 1
1 1 1 1 1 1 1 1 1 1
1 1 1 1 1 1 1 1 1 1
1 1 1 1 1 1 1 1 1 1
1 1 1 1 1 1 1 1 1 1
1 1 1 1 1 1 1 1 1 1
1 1 1 1 1 1 1 
electrochemicalHeating 1 968 float
1.03366e+06 1.03138e+06 1.02864e+06 1.02825e+06 1.03031e+06 1.03101e+06 1.03447e+06 1.03464e+06 1.03183e+06 1.03632e+06 1.0363e+06
1.0339e+06 1.03642e+06 1.03578e+06 1.03284e+06 1.0367e+06 1.03631e+06 1.03334e+06 1.03599e+06 1.03568e+06 1.03259e+06
1.0361e+06 1.03613e+06 1.03277e+06 1.03552e+06 1.03586e+06 1.03313e+06 1.03623e+06 1.03678e+06 1.03266e+06 1.03603e+06
1.03638e+06 1.03376e+06 1.03626e+06 1.03602e+06 1.03167e+06 1.03438e+06 1.03396e+06 1.03045e+06 1.02994e+06 1.02743e+06
1.02798e+06 1.03058e+06 1.03249e+06 1.03612e+06 1.04378e+06 1.05184e+06 1.05378e+06 1.05243e+06 1.05274e+06 1.04166e+06
1.04558e+06 1.05547e+06 1.0573e+06 1.0576e+06 1.0567e+06 1.04588e+06 1.04614e+06 1.05651e+06 1.05824e+06 1.05903e+06
1.05754e+06 1.04695e+06 1.04694e+06 1.05739e+06 1.05907e+06 1.05911e+06 1.05747e+06 1.04696e+06 1.04693e+06 1.05668e+06
1.05819e+06 1.05822e+06 1.05657e+06 1.04615e+06 1.0453e+06 1.05605e+06 1.05742e+06 1.05719e+06 1.0554e+06 1.04542e+06
1.04145e+06 1.0524e+06 1.05216e+06 1.05365e+06 1.05219e+06 1.04415e+06 1.03587e+06 1.03958e+06 1.0469e+06 1.05493e+06
1.05288e+06 1.04884e+06 1.05075e+06 1.04242e+06 1.04626e+06 1.05447e+06 1.05337e+06 1.05294e+06 1.05454e+06 1.0448e+06
1.04485e+06 1.05362e+06 1.05264e+06 1.05247e+06 1.0535e+06 1.04455e+06 1.0446e+06 1.05331e+06 1.05208e+06 1.05212e+06
1.05338e+06 1.04461e+06 1.04455e+06 1.05343e+06 1.0524e+06 1.05269e+06 1.05373e+06 1.04487e+06 1.0448e+06 1.05448e+06
1.05289e+06 1.05343e+06 1.05454e+06 1.04623e+06 1.04238e+06 1.0507e+06 1.04883e+06 1.05304e+06 1.0551e+06 1.04689e+06
1.03937e+06 1.03976e+06 1.04506e+06 1.0525e+06 1.04913e+06 1.04367e+06 1.04656e+06 1.03825e+06 1.04209e+06 1.05002e+06
1.048e+06 1.04736e+06 1.04977e+06 1.04087e+06 1.0424e+06 1.0504e+06 1.04828e+06 1.04807e+06 1.05061e+06 1.04282e+06
1.04302e+06 1.05123e+06 1.04886e+06 1.04891e+06 1.05128e+06 1.043e+06 1.04281e+06 1.0513e+06 1.04876e+06 1.04837e+06
1.05056e+06 1.04246e+06 1.0414e+06 1.05026e+06 1.04744e+06 1.0482e+06 1.05024e+06 1.04223e+06 1.03836e+06 1.04673e+06
1.04391e+06 1.04957e+06 1.05249e+06 1.04494e+06 1.04003e+06 1.03717e+06 1.04318e+06 1.04988e+06 1.04671e+06 1.04192e+06
1.04434e+06 1.03747e+06 1.0411e+06 1.04797e+06 1.04582e+06 1.04516e+06 1.04698e+06 1.0398e+06 1.04106e+06 1.04722e+06
1.04497e+06 1.0448e+06 1.04704e+06 1.03986e+06 1.0399e+06 1.04679e+06 1.04449e+06 1.04453e+06 1.04683e+06 1.04016e+06
1.03986e+06 1.04698e+06 1.04471e+06 1.045e+06 1.04772e+06 1.04094e+06 1.03968e+06 1.04682e+06 1.045e+06 1.04623e+06
1.04836e+06 1.04139e+06 1.03775e+06 1.04461e+06 1.04233e+06 1.0481e+06 1.05128e+06 1.04446e+06 1.03836e+06 1.03605e+06
1.04213e+06 1.0477e+06 1.04492e+06 1.03942e+06 1.04169e+06 1.03507e+06 1.0391e+06 1.04513e+06 1.04302e+06 1.0408e+06
1.04247e+06 1.03598e+06 1.03751e+06 1.04345e+06 1.04074e+06 1.04054e+06 1.0427e+06 1.03617e+06 1.03655e+06 1.04285e+06
1.0406e+06 1.04064e+06 1.04289e+06 1.03657e+06 1.03633e+06 1.0428e+06 1.04062e+06 1.04094e+06 1.04318e+06 1.0382e+06
1.03671e+06 1.04318e+06 1.04149e+06 1.04238e+06 1.04437e+06 1.03823e+06 1.03419e+06 1.0408e+06 1.03862e+06 1.04305e+06
1.04581e+06 1.0401e+06 1.03397e+06 1.03187e+06 1.03771e+06 1.04226e+06 1.03989e+06 1.03458e+06 1.03654e+06 1.03049e+06
1.03476e+06 1.0399e+06 1.03797e+06 1.03707e+06 1.03885e+06 1.0328e+06 1.03433e+06 1.03979e+06 1.03771e+06 1.03868e+06
1.04078e+06 1.03474e+06 1.03506e+06 1.04079e+06 1.03867e+06 1.03871e+06 1.04075e+06 1.03497e+06 1.0347e+06 1.03953e+06
1.0374e+06 1.03774e+06 1.03981e+06 1.03427e+06 1.0325e+06 1.03854e+06 1.03688e+06 1.03787e+06 1.03978e+06 1.03454e+06
1.03028e+06 1.03636e+06 1.03453e+06 1.03998e+06 1.04255e+06 1.03784e+06 1.0316e+06 1.02964e+06 1.03603e+06 1.04078e+06
1.03878e+06 1.03386e+06 1.03543e+06 1.02974e+06 1.0341e+06 1.0386e+06 1.03682e+06 1.03585e+06 1.03761e+06 1.03063e+06
1.03187e+06 1.03714e+06 1.03524e+06 1.03499e+06 1.03691e+06 1.03113e+06 1.03119e+06 1.03661e+06 1.03479e+06 1.03482e+06
1.0366e+06 1.03115e+06 1.03118e+06 1.03693e+06 1.03496e+06 1.03527e+06 1.03714e+06 1.03182e+06 1.03065e+06 1.03764e+06
1.03586e+06 1.0369e+06 1.03864e+06 1.03404e+06 1.02969e+06 1.03541e+06 1.03395e+06 1.039e+06 1.04094e+06 1.036e+06
1.02956e+06 1.02771e+06 1.0343e+06 1.03706e+06 1.03506e+06 1.0306e+06 1.03184e+06 1.02651e+06 1.03083e+06 1.03491e+06
1.0332e+06 1.03229e+06 1.03414e+06 1.02857e+06 1.02983e+06 1.03486e+06 1.03314e+06 1.03296e+06 1.03523e+06 1.03073e+06
1.03053e+06 1.03591e+06 1.03418e+06 1.0342e+06 1.03592e+06 1.03054e+06 1.03088e+06 1.03651e+06 1.03417e+06 1.03317e+06
1.03486e+06 1.02977e+06 1.02891e+06 1.03451e+06 1.03249e+06 1.03346e+06 1.0351e+06 1.03089e+06 1.02664e+06 1.032e+06
1.03085e+06 1.03541e+06 1.03708e+06 1.03412e+06 1.02785e+06 1.0261e+06 1.03277e+06 1.03496e+06 1.03341e+06 1.03067e+06
1.03159e+06 1.02663e+06 1.03078e+06 1.03466e+06 1.03302e+06 1.03222e+06 1.03414e+06 1.02876e+06 1.02955e+06 1.03323e+06
1.03165e+06 1.03154e+06 1.03378e+06 1.02818e+06 1.02804e+06 1.03323e+06 1.03151e+06 1.03152e+06 1.03315e+06 1.02793e+06
1.02814e+06 1.03372e+06 1.03138e+06 1.03152e+06 1.03352e+06 1.02874e+06 1.02806e+06 1.03348e+06 1.03153e+06 1.03381e+06
1.03547e+06 1.03145e+06 1.02742e+06 1.03248e+06 1.03164e+06 1.03568e+06 1.03712e+06 1.03473e+06 1.02805e+06 1.02595e+06
1.0324e+06 1.03437e+06 1.03299e+06 1.02952e+06 1.02923e+06 1.02462e+06 1.0285e+06 1.03244e+06 1.0305e+06 1.02854e+06
1.03044e+06 1.02531e+06 1.02597e+06 1.03041e+06 1.02877e+06 1.02868e+06 1.03068e+06 1.02538e+06 1.02579e+06 1.03088e+06
1.02901e+06 1.029e+06 1.03076e+06 1.02588e+06 1.02573e+06 1.03103e+06 1.02892e+06 1.029e+06 1.03044e+06 1.02735e+06
1.02684e+06 1.03202e+06 1.03008e+06 1.03078e+06 1.03223e+06 1.02816e+06 1.02442e+06 1.02915e+06 1.02857e+06 1.03078e+06
1.03202e+06 1.02986e+06 1.02345e+06 1.022e+06 1.02779e+06 1.02976e+06 1.02853e+06 1.02552e+06 1.02599e+06 1.02175e+06
1.02524e+06 1.02936e+06 1.02728e+06 1.02664e+06 1.02856e+06 1.0238e+06 1.02426e+06 1.02842e+06 1.02705e+06 1.02828e+06
1.0299e+06 1.0252e+06 1.02601e+06 1.03056e+06 1.02836e+06 1.02834e+06 1.03025e+06 1.02573e+06 1.02517e+06 1.02864e+06
1.02687e+06 1.02699e+06 1.0283e+06 1.02412e+06 1.02363e+06 1.02842e+06 1.02659e+06 1.02722e+06 1.02919e+06 1.02496e+06
1.02163e+06 1.02606e+06 1.02564e+06 1.02864e+06 1.02991e+06 1.02774e+06 1.02177e+06 1.02045e+06 1.02606e+06 1.02941e+06
1.02824e+06 1.02565e+06 1.02619e+06 1.02217e+06 1.02481e+06 1.02885e+06 1.02706e+06 1.02655e+06 1.02824e+06 1.02262e+06
1.02273e+06 1.02642e+06 1.02534e+06 1.02516e+06 1.02625e+06 1.02217e+06 1.02315e+06 1.02744e+06 1.02533e+06 1.02529e+06
1.02726e+06 1.02299e+06 1.02229e+06 1.02644e+06 1.02519e+06 1.02531e+06 1.02631e+06 1.02265e+06 1.02276e+06 1.0284e+06
1.02661e+06 1.0271e+06 1.02877e+06 1.02466e+06 1.02219e+06 1.02631e+06 1.0258e+06 1.02835e+06 1.02935e+06 1.02582e+06
1.0203e+06 1.01914e+06 1.02439e+06 1.02647e+06 1.02506e+06 1.02292e+06 1.02385e+06 1.02016e+06 1.02165e+06 1.02504e+06
1.02395e+06 1.0238e+06 1.0257e+06 1.02169e+06 1.02142e+06 1.02427e+06 1.02369e+06 1.02365e+06 1.02475e+06 1.02226e+06
1.02326e+06 1.02735e+06 1.02532e+06 1.02527e+06 1.0273e+06 1.02324e+06 1.02254e+06 1.02637e+06 1.02511e+06 1.02368e+06
1.02415e+06 1.0214e+06 1.02213e+06 1.02614e+06 1.02397e+06 1.02406e+06 1.02505e+06 1.02165e+06 1.02034e+06 1.02402e+06
1.0231e+06 1.02519e+06 1.02621e+06 1.02397e+06 1.01907e+06 1.01797e+06 1.02288e+06 1.02485e+06 1.02362e+06 1.02327e+06
1.02454e+06 1.02124e+06 1.02174e+06 1.02415e+06 1.02418e+06 1.02463e+06 1.02698e+06 1.0231e+06 1.02195e+06 1.02244e+06
1.0224e+06 1.02261e+06 1.02368e+06 1.02006e+06 1.02091e+06 1.02462e+06 1.0229e+06 1.02284e+06 1.02438e+06 1.02052e+06
1.01996e+06 1.02367e+06 1.02243e+06 1.02209e+06 1.02217e+06 1.02041e+06 1.02184e+06 1.0257e+06 1.0232e+06 1.02392e+06
1.02419e+06 1.02184e+06 1.02153e+06 1.02485e+06 1.02447e+06 1.02601e+06 1.02703e+06 1.02491e+06 1.02016e+06 1.01882e+06
1.02328e+06 1.02505e+06 1.02405e+06 1.0229e+06 1.02336e+06 1.02036e+06 1.02038e+06 1.02199e+06 1.02222e+06 1.02196e+06
1.02448e+06 1.02058e+06 1.01905e+06 1.02051e+06 1.02072e+06 1.02117e+06 1.02228e+06 1.01877e+06 1.01936e+06 1.02293e+06
1.02167e+06 1.0216e+06 1.02266e+06 1.0195e+06 1.01934e+06 1.02296e+06 1.02166e+06 1.02106e+06 1.02067e+06 1.02054e+06
1.02236e+06 1.02627e+06 1.02356e+06 1.0225e+06 1.02194e+06 1.02044e+06 1.02062e+06 1.02363e+06 1.02225e+06 1.0221e+06
1.02288e+06 1.02099e+06 1.01674e+06 1.01575e+06 1.01946e+06 1.02097e+06 1.02036e+06 1.01951e+06 1.02068e+06 1.01809e+06
1.018e+06 1.01898e+06 1.01948e+06 1.02065e+06 1.02274e+06 1.01934e+06 1.01805e+06 1.01945e+06 1.0197e+06 1.02139e+06
1.02253e+06 1.01932e+06 1.01962e+06 1.02223e+06 1.02129e+06 1.0212e+06 1.02179e+06 1.01926e+06 1.01935e+06 1.02152e+06
1.02019e+06 1.01952e+06 1.01913e+06 1.01788e+06 1.01931e+06 1.02273e+06 1.02062e+06 1.01931e+06 1.01874e+06 1.01788e+06
1.01821e+06 1.02088e+06 1.0196e+06 1.02028e+06 1.02085e+06 1.01926e+06 1.01559e+06 1.01455e+06 1.01795e+06 1.02045e+06
1.02026e+06 1.01962e+06 1.02039e+06 1.01815e+06 1.01799e+06 1.01869e+06 1.01929e+06 1.02031e+06 1.02119e+06 1.01773e+06
1.01704e+06 1.01833e+06 1.01843e+06 1.01878e+06 1.01958e+06 1.01677e+06 1.01692e+06 1.01904e+06 1.01856e+06 1.01845e+06
1.01868e+06 1.01666e+06 1.01694e+06 1.0199e+06 1.0189e+06 1.01833e+06 1.01805e+06 1.01691e+06 1.01795e+06 1.02147e+06
1.02038e+06 1.01918e+06 1.0185e+06 1.01793e+06 1.01835e+06 1.02061e+06 1.01968e+06 1.0201e+06 1.02007e+06 1.01752e+06
1.01437e+06 1.01334e+06 1.01644e+06 1.01721e+06 1.01712e+06 1.01665e+06 1.01726e+06 1.01557e+06 1.01541e+06 1.01559e+06
1.01625e+06 1.01695e+06 1.01705e+06 1.01622e+06 1.01632e+06 1.01728e+06 1.01701e+06 1.01711e+06 1.01797e+06 1.01705e+06
1.01712e+06 1.01837e+06 1.01817e+06 1.01804e+06 1.01811e+06 1.01699e+06 1.01738e+06 1.01962e+06 1.01857e+06 1.017e+06
1.01704e+06 1.01621e+06 1.01667e+06 1.01763e+06 1.01714e+06 1.01622e+06 1.01546e+06 1.0154e+06 1.01584e+06 1.01748e+06
1.0167e+06 1.01691e+06 1.01658e+06 1.01578e+06 1.01315e+06 1.01203e+06 1.01452e+06 1.0149e+06 1.01528e+06 1.01613e+06
1.01641e+06 1.01547e+06 1.01545e+06 1.01498e+06 1.01583e+06 1.01614e+06 1.0159e+06 1.01642e+06 1.01654e+06 1.01589e+06
1.01558e+06 1.01556e+06 1.01608e+06 1.01482e+06 1.0148e+06 1.01499e+06 1.01501e+06 1.01486e+06 1.01458e+06 1.0142e+06
1.01461e+06 1.01604e+06 1.01533e+06 1.0151e+06 1.01519e+06 1.01477e+06 1.01502e+06 1.01467e+06 1.01476e+06 1.01539e+06
1.01465e+06 1.01524e+06 1.01554e+06 1.01652e+06 1.01689e+06 1.01692e+06 1.01629e+06 1.01593e+06 1.01378e+06 1.01288e+06
1.01503e+06 1.0146e+06 1.01501e+06 1.01477e+06 1.01383e+06 1.01466e+06 1.01492e+06 1.01334e+06 1.01366e+06 1.01236e+06
1.01193e+06 1.01421e+06 1.01459e+06 1.01392e+06 1.01345e+06 1.01334e+06 1.01362e+06 1.01393e+06 1.01383e+06 1.01296e+06
1.01301e+06 1.01283e+06 1.01254e+06 1.01406e+06 1.01469e+06 1.01458e+06 1.01409e+06 1.01392e+06 1.01407e+06 1.01602e+06
1.01599e+06 1.01392e+06 1.01425e+06 1.01409e+06 1.01326e+06 1.01494e+06 1.01496e+06 1.0142e+06 1.0142e+06 1.01298e+06
1.01234e+06 1.01283e+06 1.01105e+06 1.01039e+06 1.01071e+06 1.00849e+06 1.00823e+06 1.00805e+06 1.00961e+06 1.01332e+06
1.01336e+06 1.0096e+06 1.00814e+06 1.00759e+06 1.00972e+06 1.0143e+06 1.01405e+06 1.0107e+06 1.00932e+06 1.01019e+06
1.01122e+06 1.01467e+06 1.01475e+06 1.01108e+06 1.00926e+06 1.00907e+06 1.01063e+06 1.01447e+06 1.01469e+06 1.0103e+06
1.00916e+06 1.00916e+06 1.01039e+06 1.01386e+06 1.01411e+06 1.00967e+06 1.0077e+06 1.008e+06 1.00937e+06 1.0132e+06
1.01329e+06 1.00972e+06 1.00802e+06 1.00792e+06 1.00823e+06 1.01063e+06 1.0105e+06 
concMe 1 968 float
28.7595 28.7549 28.7495 28.7488 28.7532 28.7539 28.7605 28.7609 28.756 28.7651 28.7659
28.7606 28.7651 28.7643 28.7592 28.7678 28.767 28.7607 28.7653 28.765 28.7603
28.7673 28.7672 28.7602 28.765 28.7653 28.7607 28.767 28.7677 28.7593 28.7643
28.7651 28.7606 28.7659 28.7651 28.756 28.7609 28.7606 28.754 28.7532 28.7489
28.7495 28.7549 28.7595 28.7669 28.7785 28.7924 28.7962 28.7954 28.7952 28.7796
28.7847 28.7988 28.8019 28.8022 28.7999 28.7854 28.7857 28.7999 28.8027 28.8028
28.8001 28.7859 28.7859 28.8001 28.8029 28.8029 28.8001 28.7859 28.7859 28.8001
28.8028 28.8027 28.7999 28.7857 28.7854 28.7999 28.8023 28.8019 28.7988 28.7847
28.7796 28.7952 28.7954 28.7962 28.7924 28.7785 28.7669 28.7773 28.7871 28.7987
28.7963 28.7914 28.7935 28.7818 28.7871 28.7987 28.7973 28.7968 28.7987 28.7867
28.7867 28.7987 28.7975 28.7973 28.7991 28.7871 28.7872 28.799 28.7975 28.7975
28.7989 28.7871 28.7871 28.7991 28.7973 28.7975 28.7987 28.7867 28.7867 28.7987
28.7968 28.7973 28.7987 28.7871 28.7818 28.7936 28.7914 28.7963 28.7987 28.7871
28.7773 28.7789 28.7866 28.7967 28.7931 28.7856 28.789 28.7766 28.7825 28.7938
28.7914 28.7905 28.7933 28.7808 28.7823 28.7936 28.7911 28.7908 28.7938 28.7818
28.7821 28.7937 28.7909 28.7908 28.7936 28.7821 28.7819 28.7938 28.7908 28.7911
28.7937 28.7823 28.7808 28.7933 28.7904 28.7914 28.7938 28.7824 28.7766 28.789
28.7856 28.7931 28.7967 28.7865 28.7789 28.774 28.7833 28.7926 28.7886 28.7802
28.7833 28.7725 28.7784 28.7886 28.7858 28.7848 28.7871 28.7764 28.7784 28.7883
28.7854 28.7851 28.788 28.7774 28.7779 28.7882 28.7852 28.7852 28.7881 28.7779
28.7774 28.788 28.7851 28.7854 28.7883 28.7784 28.7764 28.7871 28.7848 28.7858
28.7886 28.7783 28.7724 28.7833 28.7802 28.7885 28.7926 28.7833 28.774 28.7696
28.7795 28.7877 28.7839 28.7751 28.7783 28.7669 28.774 28.7835 28.7806 28.7794
28.7815 28.7711 28.7737 28.7831 28.7801 28.7797 28.7826 28.7723 28.7729 28.7829
28.7798 28.7798 28.7829 28.7729 28.7723 28.7826 28.7797 28.7801 28.7831 28.7736
28.7711 28.7815 28.7793 28.7806 28.7835 28.774 28.767 28.7783 28.7751 28.784
28.7877 28.7796 28.7696 28.765 28.7756 28.7828 28.7794 28.7705 28.7733 28.7624
28.7701 28.7787 28.7759 28.7743 28.7766 28.7663 28.769 28.7782 28.7751 28.7746
28.7776 28.7676 28.7681 28.7778 28.7747 28.7747 28.7778 28.7681 28.7676 28.7777
28.7747 28.7751 28.7782 28.769 28.7664 28.7766 28.7743 28.7759 28.7787 28.7702
28.7624 28.7733 28.7705 28.7794 28.7827 28.7756 28.765 28.7605 28.7719 28.7779
28.7749 28.7662 28.7686 28.7578 28.7662 28.774 28.7713 28.7695 28.7721 28.7618
28.7641 28.7734 28.7705 28.77 28.7734 28.7632 28.7633 28.7729 28.7701 28.7701
28.7728 28.7633 28.7633 28.7734 28.77 28.7705 28.7734 28.7641 28.7618 28.7722
28.7695 28.7713 28.774 28.7662 28.7578 28.7686 28.7662 28.7749 28.7779 28.7719
28.7605 28.756 28.7683 28.7732 28.7705 28.7623 28.7642 28.7536 28.7622 28.7696
28.7669 28.7651 28.7682 28.7578 28.7596 28.7689 28.7661 28.7657 28.7695 28.7591
28.7586 28.7685 28.7657 28.7657 28.7684 28.7586 28.7592 28.7695 28.7656 28.7661
28.7689 28.7596 28.7577 28.7682 28.7651 28.7669 28.7696 28.7622 28.7536 28.7642
28.7623 28.7705 28.7732 28.7683 28.756 28.7515 28.7645 28.7686 28.7662 28.7585
28.76 28.7497 28.7582 28.7656 28.7626 28.761 28.7644 28.7539 28.7555 28.7645
28.7619 28.7617 28.7656 28.755 28.7547 28.7647 28.7618 28.7617 28.7646 28.7547
28.7551 28.7657 28.7617 28.7619 28.7646 28.7555 28.7539 28.7644 28.761 28.7626
28.7655 28.7582 28.7497 28.76 28.7585 28.7661 28.7685 28.7644 28.7515 28.7472
28.7602 28.7641 28.7618 28.755 28.7561 28.7462 28.7544 28.7621 28.7587 28.7573
28.7608 28.7504 28.7517 28.7606 28.7579 28.7578 28.7615 28.751 28.7516 28.7613
28.758 28.758 28.7612 28.7515 28.751 28.7616 28.7577 28.7579 28.7606 28.7517
28.7504 28.7607 28.7573 28.7587 28.7621 28.7543 28.7462 28.756 28.755 28.7619
28.7642 28.7602 28.7472 28.7431 28.7558 28.7599 28.7578 28.7517 28.7524 28.743
28.7505 28.759 28.7551 28.7537 28.7571 28.7472 28.7481 28.7566 28.754 28.7537
28.7569 28.7473 28.7488 28.758 28.7542 28.7542 28.7579 28.7487 28.7473 28.757
28.7538 28.754 28.7567 28.7481 28.7472 28.7571 28.7537 28.7551 28.759 28.7505
28.743 28.7524 28.7517 28.7578 28.7599 28.7558 28.7431 28.7392 28.7514 28.7558
28.7538 28.7484 28.7493 28.7403 28.7463 28.7548 28.7513 28.7502 28.7535 28.7442
28.7444 28.7522 28.7501 28.7497 28.7523 28.7437 28.7456 28.7546 28.7505 28.7505
28.7545 28.7455 28.7437 28.7524 28.7497 28.75 28.7522 28.7444 28.7443 28.7535
28.7502 28.7513 28.7549 28.7463 28.7402 28.7493 28.7484 28.7538 28.7558 28.7514
28.7392 28.7356 28.7474 28.7521 28.7499 28.7453 28.7472 28.7387 28.7421 28.7495
28.7473 28.7469 28.7508 28.7421 28.7408 28.747 28.7458 28.7458 28.7481 28.7399
28.7419 28.7508 28.7467 28.7467 28.7507 28.7419 28.7399 28.7482 28.7457 28.7458
28.7469 28.7408 28.7422 28.7509 28.7469 28.7473 28.7495 28.7421 28.7387 28.7471
28.7453 28.7499 28.7521 28.7475 28.7356 28.7319 28.7434 28.7479 28.7456 28.7421
28.7448 28.7372 28.7382 28.7435 28.7429 28.7439 28.7489 28.7404 28.7374 28.7415
28.7416 28.7421 28.7446 28.7364 28.7382 28.7465 28.743 28.743 28.7464 28.7381
28.7364 28.7446 28.7422 28.7416 28.7414 28.7375 28.7406 28.7491 28.744 28.7429
28.7435 28.7382 28.7372 28.7448 28.7421 28.7456 28.7479 28.7433 28.7318 28.7281
28.7389 28.7431 28.7413 28.7388 28.7418 28.7348 28.7345 28.7381 28.7388 28.7411
28.7468 28.738 28.7339 28.7369 28.7378 28.739 28.7416 28.7334 28.7346 28.742
28.7394 28.7394 28.7419 28.7345 28.7334 28.7417 28.739 28.7378 28.7368 28.7339
28.738 28.7467 28.7411 28.7387 28.738 28.7345 28.7347 28.7417 28.7388 28.7413
28.7432 28.739 28.7282 28.7245 28.7343 28.738 28.737 28.7352 28.7381 28.7317
28.731 28.7331 28.7344 28.7375 28.742 28.7341 28.7302 28.7333 28.7342 28.7356
28.7383 28.7306 28.731 28.7373 28.7357 28.7356 28.7372 28.731 28.7306 28.7384
28.7356 28.7342 28.7332 28.7303 28.7341 28.7421 28.7375 28.7344 28.7331 28.731
28.7316 28.738 28.7352 28.737 28.738 28.7343 28.7245 28.7207 28.7294 28.7328
28.7328 28.7316 28.7335 28.728 28.7272 28.7286 28.7302 28.7331 28.7354 28.7297
28.7273 28.7303 28.7309 28.7321 28.7344 28.7274 28.7274 28.7328 28.7319 28.7319
28.7326 28.7274 28.7275 28.7346 28.7321 28.7309 28.7302 28.7273 28.7298 28.7354
28.7331 28.7303 28.7286 28.7271 28.7279 28.7335 28.7316 28.7328 28.7328 28.7295
28.7207 28.7169 28.7251 28.7272 28.728 28.7272 28.729 28.7246 28.7236 28.7236
28.7255 28.7278 28.7282 28.726 28.7251 28.7274 28.7271 28.7276 28.7298 28.7243