# vtk DataFile Version 2.0
electrolyte_to_fuel
ASCII
DATASET POLYDATA
POINTS 1035 float
0.0035407 0 0 0.0035407 0.0005 0 0.0035407 0.0005 0.001 0.0035407 0
0.001 0.0035407 0.001 0 0.0035407 0.001 0.001 0.0035407 0.0015 0
0.0035407 0.0015 0.001 0.0035407 0.002 0 0.0035407 0.002 0.001 0.0035407
0.0025 0 0.0035407 0.0025 0.001 0.0035407 0.003 0 0.0035407 0.003
0.001 0.0035407 0.0035 0 0.0035407 0.0035 0.001 0.0035407 0.004 0
0.0035407 0.004 0.001 0.0035407 0.0045 0 0.0035407 0.0045 0.001 0.0035407
0.005 0 0.0035407 0.005 0.001 0.0035407 0.0055 0 0.0035407 0.0055
0.001 0.0035407 0.006 0 0.0035407 0.006 0.001 0.0035407 0.0065 0
0.0035407 0.0065 0.001 0.0035407 0.007 0 0.0035407 0.007 0.001 0.0035407
0.0075 0 0.0035407 0.0075 0.001 0.0035407 0.008 0 0.0035407 0.008
0.001 0.0035407 0.0085 0 0.0035407 0.0085 0.001 0.0035407 0.009 0
0.0035407 0.009 0.001 0.0035407 0.0095 0 0.0035407 0.0095 0.001 0.0035407
0.01 0 0.0035407 0.01 0.001 0.0035407 0.0105 0 0.0035407 0.0105
0.001 0.0035407 0.011 0 0.0035407 0.011 0.001 0.0035407 0.0115 0
0.0035407 0.0115 0.001 0.0035407 0.012 0 0.0035407 0.012 0.001 0.0035407
0.0125 0 0.0035407 0.0125 0.001 0.0035407 0.013 0 0.0035407 0.013
0.001 0.0035407 0.0135 0 0.0035407 0.0135 0.001 0.0035407 0.014 0
0.0035407 0.014 0.001 0.0035407 0.0145 0 0.0035407 0.0145 0.001 0.0035407
0.015 0 0.0035407 0.015 0.001 0.0035407 0.0155 0 0.0035407 0.0155
0.001 0.0035407 0.016 0 0.0035407 0.016 0.001 0.0035407 0.0165 0
0.0035407 0.0165 0.001 0.0035407 0.017 0 0.0035407 0.017 0.001 0.0035407
0.0175 0 0.0035407 0.0175 0.001 0.0035407 0.018 0 0.0035407 0.018
0.001 0.0035407 0.0185 0 0.0035407 0.0185 0.001 0.0035407 0.019 0
0.0035407 0.019 0.001 0.0035407 0.0195 0 0.0035407 0.0195 0.001 0.0035407
0.02 0 0.0035407 0.02 0.001 0.0035407 0.0205 0 0.0035407 0.0205
0.001 0.0035407 0.021 0 0.0035407 0.021 0.001 0.0035407 0.0215 0
0.0035407 0.0215 0.001 0.0035407 0.022 0 0.0035407 0.022 0.001 0.0035407
0.0005 0.002 0.0035407 0 0.002 0.0035407 0.001 0.002 0.0035407 0.0015
0.002 0.0035407 0.002 0.002 0.0035407 0.0025 0.002 0.0035407 0.003 0.002
0.0035407 0.0035 0.002 0.0035407 0.004 0.002 0.0035407 0.0045 0.002 0.0035407
0.005 0.002 0.0035407 0.0055 0.002 0.0035407 0.006 0.002 0.0035407 0.0065
0.002 0.0035407 0.007 0.002 0.0035407 0.0075 0.002 0.0035407 0.008 0.002
0.0035407 0.0085 0.002 0.0035407 0.009 0.002 0.0035407 0.0095 0.002 0.0035407
0.01 0.002 0.0035407 0.0105 0.002 0.0035407 0.011 0.002 0.0035407 0.0115
0.002 0.0035407 0.012 0.002 0.0035407 0.0125 0.002 0.0035407 0.013 0.002
0.0035407 0.0135 0.002 0.0035407 0.014 0.002 0.0035407 0.0145 0.002 0.0035407
0.015 0.002 0.0035407 0.0155 0.002 0.0035407 0.016 0.002 0.0035407 0.0165
0.002 0.0035407 0.017 0.002 0.0035407 0.0175 0.002 0.0035407 0.018 0.002
0.0035407 0.0185 0.002 0.0035407 0.019 0.002 0.0035407 0.0195 0.002 0.0035407
0.02 0.002 0.0035407 0.0205 0.002 0.0035407 0.021 0.002 0.0035407 0.0215
0.002 0.0035407 0.022 0.002 0.0035407 0.0005 0.003 0.0035407 0 0.003
0.0035407 0.001 0.003 0.0035407 0.0015 0.003 0.0035407 0.002 0.003 0.0035407
0.0025 0.003 0.0035407 0.003 0.003 0.0035407 0.0035 0.003 0.0035407 0.004
0.003 0.0035407 0.0045 0.003 0.0035407 0.005 0.003 0.0035407 0.0055 0.003
0.0035407 0.006 0.003 0.0035407 0.0065 0.003 0.0035407 0.007 0.003 0.0035407
0.0075 0.003 0.0035407 0.008 0.003 0.0035407 0.0085 0.003 0.0035407 0.009
0.003 0.0035407 0.0095 0.003 0.0035407 0.01 0.003 0.0035407 0.0105 0.003
0.0035407 0.011 0.003 0.0035407 0.0115 0.003 0.0035407 0.012 0.003 0.0035407
0.0125 0.003 0.0035407 0.013 0.003 0.0035407 0.0135 0.003 0.0035407 0.014
0.003 0.0035407 0.0145 0.003 0.0035407 0.015 0.003 0.0035407 0.0155 0.003
0.0035407 0.016 0.003 0.0035407 0.0165 0.003 0.0035407 0.017 0.003 0.0035407
0.0175 0.003 0.0035407 0.018 0.003 0.0035407 0.0185 0.003 0.0035407 0.019
0.003 0.0035407 0.0195 0.003 0.0035407 0.02 0.003 0.0035407 0.0205 0.003
0.0035407 0.021 0.003 0.0035407 0.0215 0.003 0.0035407 0.022 0.003 0.0035407
0.0005 0.004 0.0035407 0 0.004 0.0035407 0.001 0.004 0.0035407 0.0015
0.004 0.0035407 0.002 0.004 0.0035407 0.0025 0.004 0.0035407 0.003 0.004
0.0035407 0.0035 0.004 0.0035407 0.004 0.004 0.0035407 0.0045 0.004 0.0035407
0.005 0.004 0.0035407 0.0055 0.004 0.0035407 0.006 0.004 0.0035407 0.0065
0.004 0.0035407 0.007 0.004 0.0035407 0.0075 0.004 0.0035407 0.008 0.004
0.0035407 0.0085 0.004 0.0035407 0.009 0.004 0.0035407 0.0095 0.004 0.0035407
0.01 0.004 0.0035407 0.0105 0.004 0.0035407 0.011 0.004 0.0035407 0.0115
0.004 0.0035407 0.012 0.004 0.0035407 0.0125 0.004 0.0035407 0.013 0.004
0.0035407 0.0135 0.004 0.0035407 0.014 0.004 0.0035407 0.0145 0.004 0.0035407
0.015 0.004 0.0035407 0.0155 0.004 0.0035407 0.016 0.004 0.0035407 0.0165
0.004 0.0035407 0.017 0.004 0.0035407 0.0175 0.004 0.0035407 0.018 0.004
0.0035407 0.0185 0.004 0.0035407 0.019 0.004 0.0035407 0.0195 0.004 0.0035407
0.02 0.004 0.0035407 0.0205 0.004 0.0035407 0.021 0.004 0.0035407 0.0215
0.004 0.0035407 0.022 0.004 0.0035407 0.0005 0.005 0.0035407 0 0.005
0.0035407 0.001 0.005 0.0035407 0.0015 0.005 0.0035407 0.002 0.005 0.0035407
0.0025 0.005 0.0035407 0.003 0.005 0.0035407 0.0035 0.005 0.0035407 0.004
0.005 0.0035407 0.0045 0.005 0.0035407 0.005 0.005 0.0035407 0.0055 0.005
0.0035407 0.006 0.005 0.0035407 0.0065 0.005 0.0035407 0.007 0.005 0.0035407
0.0075 0.005 0.0035407 0.008 0.005 0.0035407 0.0085 0.005 0.0035407 0.009
0.005 0.0035407 0.0095 0.005 0.0035407 0.01 0.005 0.0035407 0.0105 0.005
0.0035407 0.011 0.005 0.0035407 0.0115 0.005 0.0035407 0.012 0.005 0.0035407
0.0125 0.005 0.0035407 0.013 0.005 0.0035407 0.0135 0.005 0.0035407 0.014
0.005 0.0035407 0.0145 0.005 0.0035407 0.015 0.005 0.0035407 0.0155 0.005
0.0035407 0.016 0.005 0.0035407 0.0165 0.005 0.0035407 0.017 0.005 0.0035407
0.0175 0.005 0.0035407 0.018 0.005 0.0035407 0.0185 0.005 0.0035407 0.019
0.005 0.0035407 0.0195 0.005 0.0035407 0.02 0.005 0.0035407 0.0205 0.005
0.0035407 0.021 0.005 0.0035407 0.0215 0.005 0.0035407 0.022 0.005 0.0035407
0.0005 0.006 0.0035407 0 0.006 0.0035407 0.001 0.006 0.0035407 0.0015
0.006 0.0035407 0.002 0.006 0.0035407 0.0025 0.006 0.0035407 0.003 0.006
0.0035407 0.0035 0.006 0.0035407 0.004 0.006 0.0035407 0.0045 0.006 0.0035407
0.005 0.006 0.0035407 0.0055 0.006 0.0035407 0.006 0.006 0.0035407 0.0065
0.006 0.0035407 0.007 0.006 0.0035407 0.0075 0.006 0.0035407 0.008 0.006
0.0035407 0.0085 0.006 0.0035407 0.009 0.006 0.0035407 0.0095 0.006 0.0035407
0.01 0.006 0.0035407 0.0105 0.006 0.0035407 0.011 0.006 0.0035407 0.0115
0.006 0.0035407 0.012 0.006 0.0035407 0.0125 0.006 0.0035407 0.013 0.006
0.0035407 0.0135 0.006 0.0035407 0.014 0.006 0.0035407 0.0145 0.006 0.0035407
0.015 0.006 0.0035407 0.0155 0.006 0.0035407 0.016 0.006 0.0035407 0.0165
0.006 0.0035407 0.017 0.006 0.0035407 0.0175 0.006 0.0035407 0.018 0.006
0.0035407 0.0185 0.006 0.0035407 0.019 0.006 0.0035407 0.0195 0.006 0.0035407
0.02 0.006 0.0035407 0.0205 0.006 0.0035407 0.021 0.006 0.0035407 0.0215
0.006 0.0035407 0.022 0.006 0.0035407 0.0005 0.007 0.0035407 0 0.007
0.0035407 0.001 0.007 0.0035407 0.0015 0.007 0.0035407 0.002 0.007 0.0035407
0.0025 0.007 0.0035407 0.003 0.007 0.0035407 0.0035 0.007 0.0035407 0.004
0.007 0.0035407 0.0045 0.007 0.0035407 0.005 0.007 0.0035407 0.0055 0.007
0.0035407 0.006 0.007 0.0035407 0.0065 0.007 0.0035407 0.007 0.007 0.0035407
0.0075 0.007 0.0035407 0.008 0.007 0.0035407 0.0085 0.007 0.0035407 0.009
0.007 0.0035407 0.0095 0.007 0.0035407 0.01 0.007 0.0035407 0.0105 0.007
0.0035407 0.011 0.007 0.0035407 0.0115 0.007 0.0035407 0.012 0.007 0.0035407
0.0125 0.007 0.0035407 0.013 0.007 0.0035407 0.0135 0.007 0.0035407 0.014
0.007 0.0035407 0.0145 0.007 0.0035407 0.015 0.007 0.0035407 0.0155 0.007
0.0035407 0.016 0.007 0.0035407 0.0165 0.007 0.0035407 0.017 0.007 0.0035407
0.0175 0.007 0.0035407 0.018 0.007 0.0035407 0.0185 0.007 0.0035407 0.019
0.007 0.0035407 0.0195 0.007 0.0035407 0.02 0.007 0.0035407 0.0205 0.007
0.0035407 0.021 0.007 0.0035407 0.0215 0.007 0.0035407 0.022 0.007 0.0035407
0.0005 0.008 0.0035407 0 0.008 0.0035407 0.001 0.008 0.0035407 0.0015
0.008 0.0035407 0.002 0.008 0.0035407 0.0025 0.008 0.0035407 0.003 0.008
0.0035407 0.0035 0.008 0.0035407 0.004 0.008 0.0035407 0.0045 0.008 0.0035407
0.005 0.008 0.0035407 0.0055 0.008 0.0035407 0.006 0.008 0.0035407 0.0065
0.008 0.0035407 0.007 0.008 0.0035407 0.0075 0.008 0.0035407 0.008 0.008
0.0035407 0.0085 0.008 0.0035407 0.009 0.008 0.0035407 0.0095 0.008 0.0035407
0.01 0.008 0.0035407 0.0105 0.008 0.0035407 0.011 0.008 0.0035407 0.0115
0.008 0.0035407 0.012 0.008 0.0035407 0.0125 0.008 0.0035407 0.013 0.008
0.0035407 0.0135 0.008 0.0035407 0.014 0.008 0.0035407 0.0145 0.008 0.0035407
0.015 0.008 0.0035407 0.0155 0.008 0.0035407 0.016 0.008 0.0035407 0.0165
0.008 0.0035407 0.017 0.008 0.0035407 0.0175 0.008 0.0035407 0.018 0.008
0.0035407 0.0185 0.008 0.0035407 0.019 0.008 0.0035407 0.0195 0.008 0.0035407
0.02 0.008 0.0035407 0.0205 0.008 0.0035407 0.021 0.008 0.0035407 0.0215
0.008 0.0035407 0.022 0.008 0.0035407 0.0005 0.009 0.0035407 0 0.009
0.0035407 0.001 0.009 0.0035407 0.0015 0.009 0.0035407 0.002 0.009 0.0035407
0.0025 0.009 0.0035407 0.003 0.009 0.0035407 0.0035 0.009 0.0035407 0.004
0.009 0.0035407 0.0045 0.009 0.0035407 0.005 0.009 0.0035407 0.0055 0.009
0.0035407 0.006 0.009 0.0035407 0.0065 0.009 0.0035407 0.007 0.009 0.0035407
0.0075 0.009 0.0035407 0.008 0.009 0.0035407 0.0085 0.009 0.0035407 0.009
0.009 0.0035407 0.0095 0.009 0.0035407 0.01 0.009 0.0035407 0.0105 0.009
0.0035407 0.011 0.009 0.0035407 0.0115 0.009 0.0035407 0.012 0.009 0.0035407
0.0125 0.009 0.0035407 0.013 0.009 0.0035407 0.0135 0.009 0.0035407 0.014
0.009 0.0035407 0.0145 0.009 0.0035407 0.015 0.009 0.0035407 0.0155 0.009
0.0035407 0.016 0.009 0.0035407 0.0165 0.009 0.0035407 0.017 0.009 0.0035407
0.0175 0.009 0.0035407 0.018 0.009 0.0035407 0.0185 0.009 0.0035407 0.019
0.009 0.0035407 0.0195 0.009 0.0035407 0.02 0.009 0.0035407 0.0205 0.009
0.0035407 0.021 0.009 0.0035407 0.0215 0.009 0.0035407 0.022 0.009 0.0035407
[...]
CELL_DATA 968
FIELD attributes 16
patchID 1 968 float
1 1 1 1 1 1 1 1 1 1 1
1 1 1 1 1 1 1 1 1 1
1 1 1 1 1 1 1 1 1 1
1 1 1 1 1 1 1 1 1 1
1 1 1 1 1 1 1 1 1 1
1 1 1 1 1 1 1 1 1 1
1 1 1 1 1 1 1 1 1 1
1 1 1 1 1 1 1 1 1 1
1 1 1 1 1 1 1 1 1 1
1 1 1 1 1 1 1 1 1 1
1 1 1 1 1 1 1 1 1 1
1 1 1 1 1 1 1 1 1 1
1 1 1 1 1 1 1 1 1 1
1 1 1 1 1 1 1 1 1 1
1 1 1 1 1 1 1 1 1 1
1 1 1 1 1 1 1 1 1 1
1 1 1 1 1 1 1 1 1 1
1 1 1 1 1 1 1 1 1 1
1 1 1 1 1 1 1 1 1 1
1 1 1 1 1 1 1 1 1 1
1 1 1 1 1 1 1 1 1 1
1 1 1 1 1 1 1 1 1 1
1 1 1 1 1 1 1 1 1 1
1 1 1 1 1 1 1 1 1 1
1 1 1 1 1 1 1 1 1 1
1 1 1 1 1 1 1 1 1 1
1 1 1 1 1 1 1 1 1 1
1 1 1 1 1 1 1 1 1 1
1 1 1 1 1 1 1 1 1 1
1 1 1 1 1 1 1 1 1 1
1 1 1 1 1 1 1 1 1 1
1 1 1 1 1 1 1 1 1 1
1 1 1 1 1 1 1 1 1 1
1 1 1 1 1 1 1 1 1 1
1 1 1 1 1 1 1 1 1 1
1 1 1 1 1 1 1 1 1 1
1 1 1 1 1 1 1 1 1 1
1 1 1 1 1 1 1 1 1 1
1 1 1 1 1 1 1 1 1 1
1 1 1 1 1 1 1 1 1 1
1 1 1 1 1 1 1 1 1 1
1 1 1 1 1 1 1 1 1 1
1 1 1 1 1 1 1 1 1 1
1 1 1 1 1 1 1 1 1 1
1 1 1 1 1 1 1 1 1 1
1 1 1 1 1 1 1 1 1 1
1 1 1 1 1 1 1 1 1 1
1 1 1 1 1 1 1 1 1 1
1 1 1 1 1 1 1 1 1 1
1 1 1 1 1 1 1 1 1 1
1 1 1 1 1 1 1 1 1 1
1 1 1 1 1 1 1 1 1 1
1 1 1 1 1 1 1 1 1 1
1 1 1 1 1 1 1 1 1 1
1 1 1 1 1 1 1 1 1 1
1 1 1 1 1 1 1 1 1 1
1 1 1 1 1 1 1 1 1 1
1 1 1 1 1 1 1 1 1 1
1 1 1 1 1 1 1 1 1 1
1 1 1 1 1 1 1 1 1 1
1 1 1 1 1 1 1 1 1 1
1 1 1 1 1 1 1 1 1 1
1 1 1 1 1 1 1 1 1 1
1 1 1 1 1 1 1 1 1 1
1 1 1 1 1 1 1 1 1 1
1 1 1 1 1 1 1 1 1 1
1 1 1 1 1 1 1 1 1 1
1 1 1 1 1 1 1 1 1 1
1 1 1 1 1 1 1 1 1 1
1 1 1 1 1 1 1 1 1 1
1 1 1 1 1 1 1 1 1 1
1 1 1 1 1 1 1 1 1 1
1 1 1 1 1 1 1 1 1 1
1 1 1 1 1 1 1 1 1 1
1 1 1 1 1 1 1 1 1 1
1 1 1 1 1 1 1 1 1 1
1 1 1 1 1 1 1 1 1 1
1 1 1 1 1 1 1 1 1 1
1 1 1 1 1 1 1 1 1 1
1 1 1 1 1 1 1 1 1 1
1 1 1 1 1 1 1 1 1 1
1 1 1 1 1 1 1 1 1 1
1 1 1 1 1 1 1 1 1 1
1 1 1 1 1 1 1 1 1 1
1 1 1 1 1 1 1 1 1 1
1 1 1 1 1 1 1 1 1 1
1 1 1 1 1 1 1 1 1 1
1 1 1 1 1 1 1 1 1 1
1 1 1 1 1 1 1 1 1 1
1 1 1 1 1 1 1 1 1 1
1 1 1 1 1 1 1 1 1 1
1 1 1 1 1 1 1 1 1 1
1 1 1 1 1 1 1 1 1 1
1 1 1 1 1 1 1 1 1 1
1 1 1 1 1 1 1 1 1 1
1 1 1 1 1 1 1 1 1 1
1 1 1 1 1 1 1 
electrochemicalHeating 1 968 float
204072 209315 215680 216610 216481 215314 209736 210009 215388 216123 215466
214714 209289 209338 214737 215238 215232 214485 209081 209104 214490
215227 215224 214478 209084 209264 214674 215413 215413 214665 209734
209700 215138 215883 215896 215144 209773 209515 215088 215871 215499
214527 208144 202888 204163 207892 212658 213486 213356 212468 207853
208162 212584 213373 213355 212716 208205 208278 212756 213563 214026
213198 208695 208729 213225 214033 214026 213204 208714 208706 212742
213556 213553 212733 208259 208018 212533 213354 213364 212564 208148
207862 212481 213354 213466 212802 208027 204143 203266 206651 211785
212772 212624 211548 207275 207544 211696 212652 212626 211607 206930
207026 211201 212175 212156 210958 206769 206812 210997 211977 211967
210970 206795 206786 210988 212170 212165 211173 207007 206945 211633
212634 212644 211671 207528 207292 211573 212628 212745 211723 206589
203259 202094 204933 209829 210905 210774 209436 205420 205603 209647
210819 210777 209503 205507 205772 209806 211007 210981 209723 206182
206220 210256 211474 211460 210223 206202 206204 210231 211469 210997
209775 205753 205719 209731 210794 210811 209618 205588 205444 209470
210782 210872 209564 204676 202091 201048 203552 208610 210144 210517
209037 205043 205172 209240 210573 210522 209090 205111 205173 208758
210098 210064 208654 204663 204514 208544 209900 209885 208505 204501
204510 208512 209899 209904 208775 204742 204725 208714 210122 210778
209428 205372 205286 209294 211104 211156 209572 204503 202059 201211
203472 208570 210452 210407 208445 204483 204577 208611 210117 209552
207949 204025 204082 208120 209420 209379 207806 203849 203885 207875
209398 209381 207833 203850 204014 207990 209539 209547 208024 204356
204346 208293 209873 209893 208356 204342 204294 208265 209851 209478
207552 202480 200300 199454 201420 206580 208681 208681 206962 202989
203065 207145 208742 208680 207134 203170 203226 207314 208908 209221
207549 203537 203571 207617 209246 209228 207571 203544 203562 207234
208879 208887 207267 203197 203038 207017 208693 208720 207096 203033
203004 206988 208670 208614 206616 201461 199417 198658 200716 206325
208599 208637 206840 202824 202893 207059 208718 208652 206878 202496
202550 206696 208366 208320 206429 202357 202388 206480 208185 208167
206434 202362 202384 206476 208340 208347 206650 202523 202522 206924
208670 208699 207012 202864 202844 206872 208629 208531 206203 200603
198625 197951 199996 205361 207586 207653 205813 201753 201819 206045
207750 207679 205851 201774 201981 206198 207914 207869 206086 202293
202322 206480 208244 208224 206435 202296 202321 206491 208249 207898
206154 201957 201957 206056 207702 207735 206002 201794 201778 205850
207650 207521 205086 199734 197923 197332 199384 204848 207318 207773
205898 201782 201846 206118 207880 207810 205934 201806 201860 205774
207536 207492 205658 201474 201353 205558 207355 207335 205510 201336
201362 205563 207368 207374 205779 201538 201538 205682 207528 208063
206278 202019 202005 206136 208304 208145 205612 200140 198161 197791
199871 205442 207990 208109 205911 201751 201810 206107 207909 207363
205460 201296 201347 205626 207259 207215 205327 201136 201172 205407
207231 207211 205359 201134 201279 205492 207353 207357 205516 201558
201562 205752 207627 207648 205812 201538 201530 205698 207548 207052
204453 198912 196922 196470 198427 204036 206645 206790 204884 200711
200766 205052 206889 206839 205063 200862 200903 205159 207024 207293
205360 201168 201208 205477 207328 207308 205427 201179 201195 205100
207002 207000 205106 200872 200754 204974 206852 206863 204996 200728
200724 204907 206770 206559 204023 198423 196418 196023 198124 204082
206756 206928 205004 200821 200872 205162 207030 206988 205075 200569
200579 204792 206706 206680 204598 200412 200451 204706 206584 206564
204657 200424 200440 204648 206701 206686 204743 200551 200597 205124
207008 207008 205110 200839 200840 205034 206913 206676 203942 197997
195979 195630 197736 203406 206012 206212 204283 200115 200162 204427
206318 206287 204376 200197 200304 204463 206419 206408 204450 200567
200604 204847 206753 206732 204799 200577 200596 204808 206738 206402
204418 200280 200360 204562 206313 206302 204381 200136 200140 204320
206204 205938 203142 197487 195596 195287 197400 203089 205875 206414
204494 200316 200356 204596 206522 206503 204590 200424 200377 204197
206176 206178 204224 200039 199946 204158 206081 206060 204110 199929
199952 204155 206080 206038 204208 200112 200216 204398 206280 206738
204785 200560 200571 204765 206939 206643 203789 198093 196058 195951
198065 203757 206624 206892 204709 200538 200560 204736 206702 206206
204294 200138 200092 204165 205987 206001 204047 199878 199905 204055
206008 205988 204006 199864 200006 204198 206125 206070 204039 200262
200364 204545 206428 206382 204386 200233 200262 204439 206294 205670
202753 197093 195072 194820 196800 202444 205365 205675 203801 199676
199660 203747 205745 205771 203984 199846 199798 203827 205840 206147
204196 200040 200057 204174 206151 206130 204124 200029 200067 203961
205881 205815 203774 199766 199752 203908 205785 205718 203690 199621
199687 203822 205651 205274 202413 196778 194765 194524 196582 202392
205454 205840 203984 199878 199851 203804 205882 205937 203995 199628
199592 203530 205584 205621 203524 199445 199456 203459 205485 205465
203410 199428 199474 203574 205642 205563 203480 199564 199657 204046
205957 205859 203752 199818 199895 204011 205821 205367 202247 196451
194480 194223 196184 201463 204663 205169 203289 199281 199244 202988
205181 205269 203245 199295 199384 203165 205309 205357 203292 199640
199647 203498 205616 205595 203449 199619 199669 203625 205663 205291
203118 199359 199446 203419 205294 205164 202941 199215 199303 203322
205155 204580 201204 195943 194188 193884 195743 200786 204349 205284
203347 199457 199406 202958 205273 205391 203265 199460 199431 202775
205020 205075 202906 199144 199036 202716 204927 204906 202666 199020
199072 202854 204993 204895 202799 199206 199292 203115 205209 205543
203198 199660 199763 203667 205835 205115 201485 196440 194666 194352
195891 200100 204599 205422 202864 199525 199447 202362 205143 204761
202211 199009 198978 202004 204488 204540 201936 198788 198792 201863
204496 204473 201812 198748 198907 202079 204655 204557 201860 199116
199203 202430 204953 204778 201969 199078 199206 202549 204772 203602
199069 194903 193465 192716 193786 196999 202016 203066 200620 198068
197974 200163 203095 203228 200582 198140 198114 200433 203262 203571
200769 198364 198371 200748 203551 203527 200696 198343 198391 200553
203326 203235 200378 198082 198051 200514 203243 203063 200101 197931
198072 200632 203026 201901 196950 193765 192680 
concMe 1 968 float
28.7369 28.7698 28.7927 28.796 28.7959 28.7932 28.7742 28.7752 28.7934 28.7961 28.7961
28.7935 28.7751 28.7752 28.7935 28.7962 28.7962 28.7936 28.7752 28.7753 28.7936
28.7962 28.7962 28.7936 28.7753 28.7752 28.7935 28.7962 28.7962 28.7935 28.7752
28.775 28.7934 28.7961 28.7961 28.7935 28.7753 28.7742 28.7932 28.796 28.7962
28.7929 28.77 28.7373 28.7468 28.7692 28.7872 28.7902 28.79 28.787 28.7695
28.7709 28.7874 28.7901 28.7901 28.7873 28.7703 28.7706 28.7873 28.7902 28.7901
28.7873 28.7704 28.7705 28.7873 28.7901 28.7901 28.7873 28.7705 28.7704 28.7873
28.7902 28.7902 28.7873 28.7706 28.7703 28.7873 28.7901 28.7902 28.7874 28.7709
28.7695 28.787 28.79 28.7902 28.7873 28.7693 28.747 28.7403 28.7618 28.7815
28.7851 28.7847 28.7811 28.763 28.7643 28.7816 28.785 28.7849 28.7814 28.7637
28.7641 28.7816 28.785 28.785 28.7816 28.7639 28.7641 28.7816 28.785 28.785
28.7816 28.7641 28.7639 28.7816 28.785 28.785 28.7816 28.7641 28.7637 28.7814
28.7849 28.785 28.7816 28.7643 28.763 28.7811 28.7848 28.7851 28.7816 28.7619
28.7404 28.7306 28.7514 28.7756 28.7804 28.7801 28.7753 28.756 28.757 28.776
28.7804 28.7803 28.7756 28.7566 28.7569 28.7759 28.7804 28.7803 28.7758 28.7566
28.7568 28.7758 28.7803 28.7803 28.7758 28.7568 28.7566 28.7757 28.7803 28.7804
28.7759 28.7569 28.7565 28.7756 28.7803 28.7804 28.776 28.757 28.756 28.7753
28.7801 28.7804 28.7757 28.7516 28.7306 28.7206 28.7415 28.7701 28.7763 28.7761
28.7703 28.749 28.7498 28.7711 28.7763 28.7762 28.7706 28.7495 28.7498 28.7711
28.7764 28.7763 28.7708 28.7497 28.7498 28.771 28.7764 28.7764 28.771 28.7498
28.7497 28.7708 28.7764 28.7764 28.7711 28.7498 28.7495 28.7706 28.7762 28.7763
28.771 28.7497 28.749 28.7703 28.776 28.7762 28.77 28.7415 28.7206 28.7106
28.7316 28.7641 28.7724 28.7724 28.7656 28.7425 28.743 28.7663 28.7727 28.7726
28.7658 28.7429 28.7432 28.7665 28.7729 28.7728 28.7661 28.7431 28.7432 28.7663
28.7729 28.7729 28.7663 28.7432 28.7431 28.7661 28.7728 28.7729 28.7665 28.7432
28.7429 28.7658 28.7726 28.7728 28.7663 28.7431 28.7425 28.7656 28.7725 28.7725
28.7642 28.7317 28.7108 28.7006 28.7224 28.7591 28.7692 28.7694 28.7616 28.7364
28.7369 28.7624 28.7697 28.7695 28.7618 28.7367 28.737 28.7625 28.7698 28.7696
28.7621 28.7368 28.7369 28.7622 28.7697 28.7697 28.7622 28.7369 28.7368 28.7621
28.7697 28.7698 28.7625 28.737 28.7367 28.7618 28.7695 28.7697 28.7624 28.7369
28.7364 28.7616 28.7694 28.7692 28.7591 28.7225 28.7007 28.6907 28.7137 28.7544
28.7662 28.7665 28.7579 28.7307 28.7311 28.7589 28.767 28.7668 28.7582 28.731
28.7312 28.759 28.7671 28.767 28.7586 28.7312 28.7312 28.7587 28.767 28.767
28.7587 28.7312 28.7311 28.7586 28.767 28.7671 28.759 28.7312 28.731 28.7582
28.7668 28.767 28.7589 28.7311 28.7307 28.7579 28.7665 28.7662 28.7545 28.7138
28.6908 28.681 28.7057 28.7505 28.7635 28.764 28.7547 28.7255 28.7259 28.7559
28.7646 28.7643 28.7551 28.7258 28.726 28.7559 28.7646 28.7645 28.7555 28.7259
28.7259 28.7554 28.7645 28.7645 28.7554 28.7259 28.7259 28.7555 28.7645 28.7646
28.7559 28.726 28.7258 28.755 28.7643 28.7646 28.7559 28.7259 28.7255 28.7547
28.764 28.7636 28.7506 28.7058 28.6811 28.6717 28.6983 28.7469 28.7611 28.7617
28.7518 28.7207 28.7211 28.753 28.7623 28.7621 28.7521 28.721 28.7213 28.753
28.7624 28.7623 28.7526 28.7212 28.7212 28.7527 28.7623 28.7623 28.7527 28.7212
28.7212 28.7526 28.7623 28.7624 28.753 28.7213 28.721 28.7522 28.7621 28.7623
28.753 28.7211 28.7207 28.7518 28.7617 28.761 28.7468 28.6983 28.6717 28.6628
28.6913 28.7435 28.7588 28.7596 28.7492 28.7164 28.7168 28.7502 28.7602 28.76
28.7495 28.7168 28.717 28.7503 28.7603 28.7602 28.7499 28.7169 28.717 28.7501
28.7603 28.7603 28.7502 28.717 28.7169 28.7499 28.7602 28.7603 28.7503 28.717
28.7167 28.7495 28.76 28.7602 28.7502 28.7168 28.7164 28.7492 28.7596 28.7588
28.7436 28.6915 28.663 28.6547 28.685 28.7404 28.7567 28.7577 28.7469 28.7127
28.713 28.7477 28.7583 28.7582 28.7473 28.713 28.7131 28.7476 28.7584 28.7582
28.7472 28.713 28.7131 28.7477 28.7583 28.7583 28.7477 28.7132 28.713 28.7473
28.7582 28.7584 28.7476 28.7131 28.713 28.7473 28.7582 28.7583 28.7478 28.713
28.7127 28.7469 28.7577 28.7568 28.7404 28.6851 28.6548 28.647 28.679 28.7373
28.7547 28.7558 28.7446 28.7092 28.7094 28.7454 28.7565 28.7564 28.7452 28.7098
28.7096 28.7451 28.7565 28.7564 28.745 28.7096 28.7097 28.7454 28.7565 28.7565
28.7454 28.7097 28.7096 28.745 28.7564 28.7565 28.7451 28.7096 28.7098 28.7452
28.7564 28.7565 28.7454 28.7095 28.7092 28.7446 28.7559 28.7547 28.7374 28.6791
28.6471 28.6398 28.6733 28.7343 28.7528 28.7542 28.7425 28.7061 28.7063 28.7432
28.7548 28.7548 28.7433 28.7071 28.7065 28.7426 28.7546 28.7547 28.7428 28.7064
28.7064 28.7431 28.7547 28.7548 28.7431 28.7064 28.7063 28.7428 28.7547 28.7546
28.7426 28.7065 28.7071 28.7432 28.7547 28.7548 28.7432 28.7063 28.7061 28.7425
28.7542 28.7528 28.7344 28.6734 28.6399 28.6331 28.668 28.7315 28.7509 28.7525
28.7406 28.7032 28.7034 28.7411 28.7531 28.7532 28.7414 28.7045 28.7036 28.7404
28.7529 28.7531 28.7409 28.7035 28.7036 28.7411 28.7532 28.7532 28.7411 28.7036
28.7035 28.7409 28.7531 28.753 28.7404 28.7037 28.7045 28.7414 28.7532 28.7531
28.7411 28.7034 28.7031 28.7405 28.7524 28.7509 28.7315 28.668 28.633 28.6265
28.6626 28.7284 28.749 28.7508 28.7388 28.7006 28.7006 28.7387 28.7514 28.7516
28.7396 28.7019 28.701 28.7382 28.7513 28.7515 28.7391 28.7009 28.7009 28.7389
28.7515 28.7515 28.7389 28.7009 28.7009 28.739 28.7515 28.7513 28.7383 28.701
28.7018 28.7395 28.7516 28.7515 28.7388 28.7007 28.7007 28.7388 28.7509 28.7491
28.7285 28.6628 28.6267 28.6205 28.6577 28.7255 28.7472 28.7494 28.7372 28.6987
28.6982 28.7366 28.7499 28.7502 28.7378 28.6994 28.6985 28.7363 28.7497 28.75
28.7373 28.6984 28.6983 28.7368 28.7499 28.7499 28.7368 28.6983 28.6984 28.7373
28.75 28.7497 28.7363 28.6985 28.6995 28.7378 28.7502 28.7499 28.7366 28.6982
28.6987 28.7372 28.7494 28.7473 28.7255 28.6578 28.6206 28.6145 28.6522 28.7213
28.7451 28.7478 28.7355 28.6963 28.6957 28.7338 28.7481 28.7486 28.7357 28.6969
28.6961 28.7339 28.7481 28.7484 28.7352 28.6961 28.6959 28.7343 28.7482 28.7482
28.7343 28.6959 28.6961 28.7352 28.7484 28.7481 28.7339 28.6961 28.6969 28.7357
28.7486 28.7481 28.7338 28.6957 28.6963 28.7355 28.7478 28.7451 28.7214 28.6523
28.6146 28.608 28.6452 28.715 28.7424 28.746 28.7331 28.6939 28.6931 28.7304
28.7461 28.7468 28.7329 28.6942 28.6934 28.7309 28.7462 28.7466 28.7323 28.6935
28.6932 28.7313 28.7463 28.7463 28.7313 28.6932 28.6935 28.7323 28.7466 28.7462
28.7309 28.6934 28.6942 28.7329 28.7468 28.7461 28.7304 28.6931 28.6939 28.7331
28.746 28.7424 28.7151 28.6453 28.6081 28.6002 28.637 28.7079 28.7391 28.7438
28.7301 28.6909 28.6899 28.7265 28.7438 28.7447 28.7296 28.691 28.6903 28.7274
28.744 28.7445 28.7289 28.6905 28.6902 28.7279 28.7442 28.7442 28.7279 28.6902
28.6905 28.7289 28.7445 28.744 28.7274 28.6903 28.6911 28.7296 28.7448 28.7438
28.7265 28.6899 28.6908 28.7301 28.7438 28.7391 28.7078 28.6369 28.6002 28.5883
28.6205 28.6878 28.7331 28.7395 28.7218 28.6859 28.6845 28.7168 28.7396 28.7407
28.7207 28.6858 28.685 28.7183 28.74 28.7405 28.7199 28.6853 28.685 28.7189
28.7402 28.7402 28.7189 28.685 28.6853 28.7199 28.7405 28.74 28.7183 28.685
28.6858 28.7207 28.7407 28.7397 28.7169 28.6845 28.6859 28.7219 28.7396 28.7332
28.688 28.6208 28.5885 28.5687 28.5958 28.657 28.7197 28.7292 28.7068 28.6756
28.674 28.7013 28.7296 28.7309 28.7054 28.6753 28.6745 28.7031 28.73 28.7306
28.7045 28.6747 28.6744 28.7037 28.7302 28.7302 28.7037 28.6744 28.6747 28.7045
28.7306 28.73 28.7032 28.6745 28.6753 28.7054 28.7309 28.7296 28.7013 28.674
28.6757 28.7068 28.7292 28.7198 28.6571 28.5959 28.5688 
iLC 1 968 float
40994.2 41188.5 41399.9 41440.1 41440.4 41411.1 41267.4 41272.6 41413 41441.2 41441.3
41412.6 41271.4 41272.2 41413 41441.6 41441.5 41413 41272.1 41272.2 41413
41441.5 41441.5 41413 41272.2 41271.9 41412.9 41441.4 41441.4 41412.9 41271.7
41270.8 41412.3 41441 41441.3 41413.2 41273 41267.8 41411.3 41440.9 41441
41401 41190.8 40997.5 40989.1 41168.6 41367.3 41413.6 41413.9 41378.2 41239.4
41243.9 41380.3 41414.7 41414.4 41379.3 41241.9 41242.8 41379.7 41414.5 41414.2
41379.3 41241.9 41242 41379.3 41414.1 41414.1 41379.3 41242 41241.9 41379.5
41414.4 41414.4 41379.7 41242.7 41241.8 41379.3 41414.4 41414.7 41380.4 41244.1
41239.6 41378.3 41414.1 41413.9 41367.7 41169.4 40990.6 40922.1 41095.1 41325.7
41386.1 41387.4 41342.8 41192.5 41196.4 41345.1 41388.5 41388.2 41344 41194.8
41195.8 41344.8 41388.6 41388.4 41344.6 41195.3 41195.4 41344.6 41388.5 41388.5
41344.7 41195.4 41195.3 41344.6 41388.5 41388.6 41344.8 41195.7 41194.7 41344
41388.1 41388.5 41345.2 41196.5 41192.6 41342.9 41387.5 41386.3 41326.1 41095.9
40923.2 40838 41007 41279.2 41358.1 41361.3 41306.7 41144.4 41146.6 41310
41363.1 41362.6 41308.4 41145.9 41146.3 41309.1 41362.8 41362.6 41308.6 41145.6
41145.6 41308.4 41362.4 41362.4 41308.5 41145.6 41145.6 41308.4 41362.4 41362.8
41309.1 41146.2 41145.6 41308.2 41362.6 41363.2 41310.1 41146.7 41144.5 41306.8
41361.3 41358.3 41279.7 41007.8 40838.8 40759.2 40933.5 41235.6 41331 41336.6
41274.9 41102.1 41103.7 41278.8 41339.4 41338.8 41276.9 41103.4 41103.7 41278.1
41339.3 41339.1 41277.6 41103.9 41104 41277.8 41339.2 41339.2 41277.8 41104
41104 41277.6 41339.2 41339.4 41278.1 41104.1 41103.6 41277.1 41339 41339.3
41278.7 41103.6 41102 41274.8 41336.3 41330.6 41235.3 40933.1 40758.8 40686.6
40868.4 41193.6 41304.5 41313.4 41246.6 41066 41067.3 41250.5 41317.6 41317.3
41249.2 41067.7 41067.9 41250 41317.7 41317.6 41249.8 41068.1 41068.1 41249.9
41317.6 41317.6 41249.9 41068.2 41068 41249.6 41317.4 41317.6 41250 41067.8
41067.4 41249 41317.1 41317.7 41250.7 41067.5 41066.1 41246.7 41313.8 41305.1
41194.3 40869.5 40687.7 40623.5 40814.5 41159.5 41281.5 41293.3 41223 41035.9
41037.2 41227.1 41298.5 41298 41225.6 41037.2 41037.4 41226.3 41298.1 41297.8
41225.8 41037.2 41037.2 41225.8 41297.8 41297.8 41225.8 41037.2 41037.2 41226
41298 41298.2 41226.3 41037.4 41037.3 41225.6 41297.9 41298.5 41227.1 41037.3
41035.9 41223.1 41293.4 41281.7 41159.8 40815.1 40624.2 40568 40767.4 41128.6
41259.6 41274.1 41201.6 41009.4 41010.6 41205.6 41280.4 41280 41204.7 41011.2
41011.4 41205.1 41280.2 41280.2 41205.1 41011.4 41011.4 41205 41280.2 41280.2
41205.1 41011.4 41011.4 41205.1 41280.2 41280.3 41205.1 41011.4 41011.2 41204.6
41280 41280.5 41205.7 41010.7 41009.4 41201.6 41274.2 41259.8 41129 40768
40568.7 40519.9 40726.9 41101.8 41239.9 41256.7 41182.9 40987 40988.3 41186.9
41264.2 41263.9 41186.4 40988.9 40988.7 41186.1 41263.7 41263.7 41186.2 40988.5
40988.5 41186.1 41263.5 41263.6 41186.1 40988.5 40988.4 41186 41263.5 41263.7
41186.2 40988.8 40988.7 41186.2 41263.9 41264.2 41187 40988.3 40987 41182.9
41256.8 41240.1 41102.2 40727.5 40520.4 40478 40691.2 41077.2 41221.1 41239.9
41165.4 40966.6 40967.8 41169.2 41248.5 41248.3 41169.1 40968.6 40968.5 41169
41248.4 41248.5 41169.3 40968.9 40968.9 41169.1 41248.4 41248.4 41169.2 40968.9
40968.9 41169.3 41248.5 41248.5 41169.1 40968.8 40968.8 41169.2 41248.4 41248.4
41169.1 40967.7 40966.4 41165.2 41239.6 41220.8 41076.9 40690.9 40477.5 40440.3
40658.9 41054.2 41202.9 41223.8 41149.1 40948.1 40949.3 41152.9 41233.7 41233.9