# vtk DataFile Version 2.0
electrolyte_to_fuel
ASCII
DATASET POLYDATA
POINTS 1035 float
0.0035407 0 0 0.0035407 0.0005 0 0.0035407 0.0005 0.001 0.0035407 0
0.001 0.0035407 0.001 0 0.0035407 0.001 0.001 0.0035407 0.0015 0
0.0035407 0.0015 0.001 0.0035407 0.002 0 0.0035407 0.002 0.001 0.0035407
0.0025 0 0.0035407 0.0025 0.001 0.0035407 0.003 0 0.0035407 0.003
0.001 0.0035407 0.0035 0 0.0035407 0.0035 0.001 0.0035407 0.004 0
0.0035407 0.004 0.001 0.0035407 0.0045 0 0.0035407 0.0045 0.001 0.0035407
0.005 0 0.0035407 0.005 0.001 0.0035407 0.0055 0 0.0035407 0.0055
0.001 0.0035407 0.006 0 0.0035407 0.006 0.001 0.0035407 0.0065 0
0.0035407 0.0065 0.001 0.0035407 0.007 0 0.0035407 0.007 0.001 0.0035407
0.0075 0 0.0035407 0.0075 0.001 0.0035407 0.008 0 0.0035407 0.008
0.001 0.0035407 0.0085 0 0.0035407 0.0085 0.001 0.0035407 0.009 0
0.0035407 0.009 0.001 0.0035407 0.0095 0 0.0035407 0.0095 0.001 0.0035407
0.01 0 0.0035407 0.01 0.001 0.0035407 0.0105 0 0.0035407 0.0105
0.001 0.0035407 0.011 0 0.0035407 0.011 0.001 0.0035407 0.0115 0
0.0035407 0.0115 0.001 0.0035407 0.012 0 0.0035407 0.012 0.001 0.0035407
0.0125 0 0.0035407 0.0125 0.001 0.0035407 0.013 0 0.0035407 0.013
0.001 0.0035407 0.0135 0 0.0035407 0.0135 0.001 0.0035407 0.014 0
0.0035407 0.014 0.001 0.0035407 0.0145 0 0.0035407 0.0145 0.001 0.0035407
0.015 0 0.0035407 0.015 0.001 0.0035407 0.0155 0 0.0035407 0.0155
0.001 0.0035407 0.016 0 0.0035407 0.016 0.001 0.0035407 0.0165 0
0.0035407 0.0165 0.001 0.0035407 0.017 0 0.0035407 0.017 0.001 0.0035407
0.0175 0 0.0035407 0.0175 0.001 0.0035407 0.018 0 0.0035407 0.018
0.001 0.0035407 0.0185 0 0.0035407 0.0185 0.001 0.0035407 0.019 0
0.0035407 0.019 0.001 0.0035407 0.0195 0 0.0035407 0.0195 0.001 0.0035407
0.02 0 0.0035407 0.02 0.001 0.0035407 0.0205 0 0.0035407 0.0205
0.001 0.0035407 0.021 0 0.0035407 0.021 0.001 0.0035407 0.0215 0
0.0035407 0.0215 0.001 0.0035407 0.022 0 0.0035407 0.022 0.001 0.0035407
0.0005 0.002 0.0035407 0 0.002 0.0035407 0.001 0.002 0.0035407 0.0015
0.002 0.0035407 0.002 0.002 0.0035407 0.0025 0.002 0.0035407 0.003 0.002
0.0035407 0.0035 0.002 0.0035407 0.004 0.002 0.0035407 0.0045 0.002 0.0035407
0.005 0.002 0.0035407 0.0055 0.002 0.0035407 0.006 0.002 0.0035407 0.0065
0.002 0.0035407 0.007 0.002 0.0035407 0.0075 0.002 0.0035407 0.008 0.002
0.0035407 0.0085 0.002 0.0035407 0.009 0.002 0.0035407 0.0095 0.002 0.0035407
0.01 0.002 0.0035407 0.0105 0.002 0.0035407 0.011 0.002 0.0035407 0.0115
0.002 0.0035407 0.012 0.002 0.0035407 0.0125 0.002 0.0035407 0.013 0.002
0.0035407 0.0135 0.002 0.0035407 0.014 0.002 0.0035407 0.0145 0.002 0.0035407
0.015 0.002 0.0035407 0.0155 0.002 0.0035407 0.016 0.002 0.0035407 0.0165
0.002 0.0035407 0.017 0.002 0.0035407 0.0175 0.002 0.0035407 0.018 0.002
0.0035407 0.0185 0.002 0.0035407 0.019 0.002 0.0035407 0.0195 0.002 0.0035407
0.02 0.002 0.0035407 0.0205 0.002 0.0035407 0.021 0.002 0.0035407 0.0215
0.002 0.0035407 0.022 0.002 0.0035407 0.0005 0.003 0.0035407 0 0.003
0.0035407 0.001 0.003 0.0035407 0.0015 0.003 0.0035407 0.002 0.003 0.0035407
0.0025 0.003 0.0035407 0.003 0.003 0.0035407 0.0035 0.003 0.0035407 0.004
0.003 0.0035407 0.0045 0.003 0.0035407 0.005 0.003 0.0035407 0.0055 0.003
0.0035407 0.006 0.003 0.0035407 0.0065 0.003 0.0035407 0.007 0.003 0.0035407
0.0075 0.003 0.0035407 0.008 0.003 0.0035407 0.0085 0.003 0.0035407 0.009
0.003 0.0035407 0.0095 0.003 0.0035407 0.01 0.003 0.0035407 0.0105 0.003
0.0035407 0.011 0.003 0.0035407 0.0115 0.003 0.0035407 0.012 0.003 0.0035407
0.0125 0.003 0.0035407 0.013 0.003 0.0035407 0.0135 0.003 0.0035407 0.014
0.003 0.0035407 0.0145 0.003 0.0035407 0.015 0.003 0.0035407 0.0155 0.003
0.0035407 0.016 0.003 0.0035407 0.0165 0.003 0.0035407 0.017 0.003 0.0035407
0.0175 0.003 0.0035407 0.018 0.003 0.0035407 0.0185 0.003 0.0035407 0.019
0.003 0.0035407 0.0195 0.003 0.0035407 0.02 0.003 0.0035407 0.0205 0.003
0.0035407 0.021 0.003 0.0035407 0.0215 0.003 0.0035407 0.022 0.003 0.0035407
0.0005 0.004 0.0035407 0 0.004 0.0035407 0.001 0.004 0.0035407 0.0015
0.004 0.0035407 0.002 0.004 0.0035407 0.0025 0.004 0.0035407 0.003 0.004
0.0035407 0.0035 0.004 0.0035407 0.004 0.004 0.0035407 0.0045 0.004 0.0035407
0.005 0.004 0.0035407 0.0055 0.004 0.0035407 0.006 0.004 0.0035407 0.0065
0.004 0.0035407 0.007 0.004 0.0035407 0.0075 0.004 0.0035407 0.008 0.004
0.0035407 0.0085 0.004 0.0035407 0.009 0.004 0.0035407 0.0095 0.004 0.0035407
0.01 0.004 0.0035407 0.0105 0.004 0.0035407 0.011 0.004 0.0035407 0.0115
0.004 0.0035407 0.012 0.004 0.0035407 0.0125 0.004 0.0035407 0.013 0.004
0.0035407 0.0135 0.004 0.0035407 0.014 0.004 0.0035407 0.0145 0.004 0.0035407
0.015 0.004 0.0035407 0.0155 0.004 0.0035407 0.016 0.004 0.0035407 0.0165
0.004 0.0035407 0.017 0.004 0.0035407 0.0175 0.004 0.0035407 0.018 0.004
0.0035407 0.0185 0.004 0.0035407 0.019 0.004 0.0035407 0.0195 0.004 0.0035407
0.02 0.004 0.0035407 0.0205 0.004 0.0035407 0.021 0.004 0.0035407 0.0215
0.004 0.0035407 0.022 0.004 0.0035407 0.0005 0.005 0.0035407 0 0.005
0.0035407 0.001 0.005 0.0035407 0.0015 0.005 0.0035407 0.002 0.005 0.0035407
0.0025 0.005 0.0035407 0.003 0.005 0.0035407 0.0035 0.005 0.0035407 0.004
0.005 0.0035407 0.0045 0.005 0.0035407 0.005 0.005 0.0035407 0.0055 0.005
0.0035407 0.006 0.005 0.0035407 0.0065 0.005 0.0035407 0.007 0.005 0.0035407
0.0075 0.005 0.0035407 0.008 0.005 0.0035407 0.0085 0.005 0.0035407 0.009
0.005 0.0035407 0.0095 0.005 0.0035407 0.01 0.005 0.0035407 0.0105 0.005
0.0035407 0.011 0.005 0.0035407 0.0115 0.005 0.0035407 0.012 0.005 0.0035407
0.0125 0.005 0.0035407 0.013 0.005 0.0035407 0.0135 0.005 0.0035407 0.014
0.005 0.0035407 0.0145 0.005 0.0035407 0.015 0.005 0.0035407 0.0155 0.005
0.0035407 0.016 0.005 0.0035407 0.0165 0.005 0.0035407 0.017 0.005 0.0035407
0.0175 0.005 0.0035407 0.018 0.005 0.0035407 0.0185 0.005 0.0035407 0.019
0.005 0.0035407 0.0195 0.005 0.0035407 0.02 0.005 0.0035407 0.0205 0.005
0.0035407 0.021 0.005 0.0035407 0.0215 0.005 0.0035407 0.022 0.005 0.0035407
0.0005 0.006 0.0035407 0 0.006 0.0035407 0.001 0.006 0.0035407 0.0015
0.006 0.0035407 0.002 0.006 0.0035407 0.0025 0.006 0.0035407 0.003 0.006
0.0035407 0.0035 0.006 0.0035407 0.004 0.006 0.0035407 0.0045 0.006 0.0035407
0.005 0.006 0.0035407 0.0055 0.006 0.0035407 0.006 0.006 0.0035407 0.0065
0.006 0.0035407 0.007 0.006 0.0035407 0.0075 0.006 0.0035407 0.008 0.006
0.0035407 0.0085 0.006 0.0035407 0.009 0.006 0.0035407 0.0095 0.006 0.0035407
0.01 0.006 0.0035407 0.0105 0.006 0.0035407 0.011 0.006 0.0035407 0.0115
0.006 0.0035407 0.012 0.006 0.0035407 0.0125 0.006 0.0035407 0.013 0.006
0.0035407 0.0135 0.006 0.0035407 0.014 0.006 0.0035407 0.0145 0.006 0.0035407
0.015 0.006 0.0035407 0.0155 0.006 0.0035407 0.016 0.006 0.0035407 0.0165
0.006 0.0035407 0.017 0.006 0.0035407 0.0175 0.006 0.0035407 0.018 0.006
0.0035407 0.0185 0.006 0.0035407 0.019 0.006 0.0035407 0.0195 0.006 0.0035407
0.02 0.006 0.0035407 0.0205 0.006 0.0035407 0.021 0.006 0.0035407 0.0215
0.006 0.0035407 0.022 0.006 0.0035407 0.0005 0.007 0.0035407 0 0.007
0.0035407 0.001 0.007 0.0035407 0.0015 0.007 0.0035407 0.002 0.007 0.0035407
0.0025 0.007 0.0035407 0.003 0.007 0.0035407 0.0035 0.007 0.0035407 0.004
0.007 0.0035407 0.0045 0.007 0.0035407 0.005 0.007 0.0035407 0.0055 0.007
0.0035407 0.006 0.007 0.0035407 0.0065 0.007 0.0035407 0.007 0.007 0.0035407
0.0075 0.007 0.0035407 0.008 0.007 0.0035407 0.0085 0.007 0.0035407 0.009
0.007 0.0035407 0.0095 0.007 0.0035407 0.01 0.007 0.0035407 0.0105 0.007
0.0035407 0.011 0.007 0.0035407 0.0115 0.007 0.0035407 0.012 0.007 0.0035407
0.0125 0.007 0.0035407 0.013 0.007 0.0035407 0.0135 0.007 0.0035407 0.014
0.007 0.0035407 0.0145 0.007 0.0035407 0.015 0.007 0.0035407 0.0155 0.007
0.0035407 0.016 0.007 0.0035407 0.0165 0.007 0.0035407 0.017 0.007 0.0035407
0.0175 0.007 0.0035407 0.018 0.007 0.0035407 0.0185 0.007 0.0035407 0.019
0.007 0.0035407 0.0195 0.007 0.0035407 0.02 0.007 0.0035407 0.0205 0.007
0.0035407 0.021 0.007 0.0035407 0.0215 0.007 0.0035407 0.022 0.007 0.0035407
0.0005 0.008 0.0035407 0 0.008 0.0035407 0.001 0.008 0.0035407 0.0015
0.008 0.0035407 0.002 0.008 0.0035407 0.0025 0.008 0.0035407 0.003 0.008
0.0035407 0.0035 0.008 0.0035407 0.004 0.008 0.0035407 0.0045 0.008 0.0035407
0.005 0.008 0.0035407 0.0055 0.008 0.0035407 0.006 0.008 0.0035407 0.0065
0.008 0.0035407 0.007 0.008 0.0035407 0.0075 0.008 0.0035407 0.008 0.008
0.0035407 0.0085 0.008 0.0035407 0.009 0.008 0.0035407 0.0095 0.008 0.0035407
0.01 0.008 0.0035407 0.0105 0.008 0.0035407 0.011 0.008 0.0035407 0.0115
0.008 0.0035407 0.012 0.008 0.0035407 0.0125 0.008 0.0035407 0.013 0.008
0.0035407 0.0135 0.008 0.0035407 0.014 0.008 0.0035407 0.0145 0.008 0.0035407
0.015 0.008 0.0035407 0.0155 0.008 0.0035407 0.016 0.008 0.0035407 0.0165
0.008 0.0035407 0.017 0.008 0.0035407 0.0175 0.008 0.0035407 0.018 0.008
0.0035407 0.0185 0.008 0.0035407 0.019 0.008 0.0035407 0.0195 0.008 0.0035407
0.02 0.008 0.0035407 0.0205 0.008 0.0035407 0.021 0.008 0.0035407 0.0215
0.008 0.0035407 0.022 0.008 0.0035407 0.0005 0.009 0.0035407 0 0.009
0.0035407 0.001 0.009 0.0035407 0.0015 0.009 0.0035407 0.002 0.009 0.0035407
0.0025 0.009 0.0035407 0.003 0.009 0.0035407 0.0035 0.009 0.0035407 0.004
0.009 0.0035407 0.0045 0.009 0.0035407 0.005 0.009 0.0035407 0.0055 0.009
0.0035407 0.006 0.009 0.0035407 0.0065 0.009 0.0035407 0.007 0.009 0.0035407
0.0075 0.009 0.0035407 0.008 0.009 0.0035407 0.0085 0.009 0.0035407 0.009
0.009 0.0035407 0.0095 0.009 0.0035407 0.01 0.009 0.0035407 0.0105 0.009
0.0035407 0.011 0.009 0.0035407 0.0115 0.009 0.0035407 0.012 0.009 0.0035407
0.0125 0.009 0.0035407 0.013 0.009 0.0035407 0.0135 0.009 0.0035407 0.014
0.009 0.0035407 0.0145 0.009 0.0035407 0.015 0.009 0.0035407 0.0155 0.009
0.0035407 0.016 0.009 0.0035407 0.0165 0.009 0.0035407 0.017 0.009 0.0035407
0.0175 0.009 0.0035407 0.018 0.009 0.0035407 0.0185 0.009 0.0035407 0.019
0.009 0.0035407 0.0195 0.009 0.0035407 0.02 0.009 0.0035407 0.0205 0.009
0.0035407 0.021 0.009 0.0035407 0.0215 0.009 0.0035407 0.022 0.009 0.0035407
[...]
CELL_DATA 968
FIELD attributes 16
patchID 1 968 float
1 1 1 1 1 1 1 1 1 1 1
1 1 1 1 1 1 1 1 1 1
1 1 1 1 1 1 1 1 1 1
1 1 1 1 1 1 1 1 1 1
1 1 1 1 1 1 1 1 1 1
1 1 1 1 1 1 1 1 1 1
1 1 1 1 1 1 1 1 1 1
1 1 1 1 1 1 1 1 1 1
1 1 1 1 1 1 1 1 1 1
1 1 1 1 1 1 1 1 1 1
1 1 1 1 1 1 1 1 1 1
1 1 1 1 1 1 1 1 1 1
1 1 1 1 1 1 1 1 1 1
1 1 1 1 1 1 1 1 1 1
1 1 1 1 1 1 1 1 1 1
1 1 1 1 1 1 1 1 1 1
1 1 1 1 1 1 1 1 1 1
1 1 1 1 1 1 1 1 1 1
1 1 1 1 1 1 1 1 1 1
1 1 1 1 1 1 1 1 1 1
1 1 1 1 1 1 1 1 1 1
1 1 1 1 1 1 1 1 1 1
1 1 1 1 1 1 1 1 1 1
1 1 1 1 1 1 1 1 1 1
1 1 1 1 1 1 1 1 1 1
1 1 1 1 1 1 1 1 1 1
1 1 1 1 1 1 1 1 1 1
1 1 1 1 1 1 1 1 1 1
1 1 1 1 1 1 1 1 1 1
1 1 1 1 1 1 1 1 1 1
1 1 1 1 1 1 1 1 1 1
1 1 1 1 1 1 1 1 1 1
1 1 1 1 1 1 1 1 1 1
1 1 1 1 1 1 1 1 1 1
1 1 1 1 1 1 1 1 1 1
1 1 1 1 1 1 1 1 1 1
1 1 1 1 1 1 1 1 1 1
1 1 1 1 1 1 1 1 1 1
1 1 1 1 1 1 1 1 1 1
1 1 1 1 1 1 1 1 1 1
1 1 1 1 1 1 1 1 1 1
1 1 1 1 1 1 1 1 1 1
1 1 1 1 1 1 1 1 1 1
1 1 1 1 1 1 1 1 1 1
1 1 1 1 1 1 1 1 1 1
1 1 1 1 1 1 1 1 1 1
1 1 1 1 1 1 1 1 1 1
1 1 1 1 1 1 1 1 1 1
1 1 1 1 1 1 1 1 1 1
1 1 1 1 1 1 1 1 1 1
1 1 1 1 1 1 1 1 1 1
1 1 1 1 1 1 1 1 1 1
1 1 1 1 1 1 1 1 1 1
1 1 1 1 1 1 1 1 1 1
1 1 1 1 1 1 1 1 1 1
1 1 1 1 1 1 1 1 1 1
1 1 1 1 1 1 1 1 1 1
1 1 1 1 1 1 1 1 1 1
1 1 1 1 1 1 1 1 1 1
1 1 1 1 1 1 1 1 1 1
1 1 1 1 1 1 1 1 1 1
1 1 1 1 1 1 1 1 1 1
1 1 1 1 1 1 1 1 1 1
1 1 1 1 1 1 1 1 1 1
1 1 1 1 1 1 1 1 1 1
1 1 1 1 1 1 1 1 1 1
1 1 1 1 1 1 1 1 1 1
1 1 1 1 1 1 1 1 1 1
1 1 1 1 1 1 1 1 1 1
1 1 1 1 1 1 1 1 1 1
1 1 1 1 1 1 1 1 1 1
1 1 1 1 1 1 1 1 1 1
1 1 1 1 1 1 1 1 1 1
1 1 1 1 1 1 1 1 1 1
1 1 1 1 1 1 1 1 1 1
1 1 1 1 1 1 1 1 1 1
1 1 1 1 1 1 1 1 1 1
1 1 1 1 1 1 1 1 1 1
1 1 1 1 1 1 1 1 1 1
1 1 1 1 1 1 1 1 1 1
1 1 1 1 1 1 1 1 1 1
1 1 1 1 1 1 1 1 1 1
1 1 1 1 1 1 1 1 1 1
1 1 1 1 1 1 1 1 1 1
1 1 1 1 1 1 1 1 1 1
1 1 1 1 1 1 1 1 1 1
1 1 1 1 1 1 1 1 1 1
1 1 1 1 1 1 1 1 1 1
1 1 1 1 1 1 1 1 1 1
1 1 1 1 1 1 1 1 1 1
1 1 1 1 1 1 1 1 1 1
1 1 1 1 1 1 1 1 1 1
1 1 1 1 1 1 1 1 1 1
1 1 1 1 1 1 1 1 1 1
1 1 1 1 1 1 1 1 1 1
1 1 1 1 1 1 1 1 1 1
1 1 1 1 1 1 1 
electrochemicalHeating 1 968 float
1.03534e+06 1.03217e+06 1.02904e+06 1.03045e+06 1.0343e+06 1.03307e+06 1.03485e+06 1.03537e+06 1.03346e+06 1.03747e+06 1.04156e+06
1.03455e+06 1.03668e+06 1.03694e+06 1.03502e+06 1.04143e+06 1.0417e+06 1.03508e+06 1.03687e+06 1.03685e+06 1.03468e+06
1.04171e+06 1.04174e+06 1.03487e+06 1.03657e+06 1.03654e+06 1.03466e+06 1.04142e+06 1.04136e+06 1.03468e+06 1.03706e+06
1.03651e+06 1.0343e+06 1.0414e+06 1.03707e+06 1.03324e+06 1.03506e+06 1.03426e+06 1.0324e+06 1.03385e+06 1.02956e+06
1.02832e+06 1.03125e+06 1.0339e+06 1.03812e+06 1.04611e+06 1.05432e+06 1.05653e+06 1.05378e+06 1.05259e+06 1.04197e+06
1.04788e+06 1.05716e+06 1.05694e+06 1.05678e+06 1.05723e+06 1.04664e+06 1.04852e+06 1.05829e+06 1.05779e+06 1.05847e+06
1.05882e+06 1.04855e+06 1.04896e+06 1.05896e+06 1.05853e+06 1.05855e+06 1.059e+06 1.04895e+06 1.04849e+06 1.05795e+06
1.05764e+06 1.0578e+06 1.05835e+06 1.04854e+06 1.04617e+06 1.05673e+06 1.05671e+06 1.05696e+06 1.0572e+06 1.04782e+06
1.04184e+06 1.0523e+06 1.05356e+06 1.05644e+06 1.05468e+06 1.04649e+06 1.03786e+06 1.04151e+06 1.04861e+06 1.0571e+06
1.05524e+06 1.04924e+06 1.04958e+06 1.04258e+06 1.04777e+06 1.05626e+06 1.05315e+06 1.05216e+06 1.05475e+06 1.04431e+06
1.04658e+06 1.05562e+06 1.05208e+06 1.05175e+06 1.0547e+06 1.04518e+06 1.04576e+06 1.055e+06 1.05155e+06 1.05159e+06
1.05506e+06 1.04577e+06 1.04515e+06 1.05463e+06 1.0517e+06 1.05216e+06 1.05573e+06 1.04661e+06 1.04425e+06 1.05467e+06
1.05212e+06 1.05322e+06 1.05634e+06 1.04775e+06 1.04254e+06 1.04949e+06 1.04921e+06 1.05539e+06 1.05727e+06 1.04861e+06
1.04132e+06 1.0413e+06 1.04708e+06 1.05479e+06 1.05166e+06 1.04413e+06 1.04486e+06 1.03878e+06 1.0441e+06 1.05211e+06
1.04802e+06 1.04676e+06 1.05008e+06 1.04141e+06 1.04392e+06 1.05221e+06 1.04779e+06 1.04748e+06 1.05154e+06 1.04364e+06
1.04421e+06 1.05263e+06 1.04836e+06 1.04841e+06 1.05272e+06 1.04424e+06 1.04364e+06 1.05225e+06 1.04821e+06 1.0479e+06
1.05236e+06 1.04399e+06 1.04174e+06 1.05037e+06 1.04672e+06 1.04812e+06 1.05222e+06 1.04416e+06 1.03879e+06 1.0449e+06
1.04427e+06 1.05199e+06 1.05478e+06 1.04697e+06 1.04158e+06 1.03872e+06 1.045e+06 1.05206e+06 1.04907e+06 1.0421e+06
1.04233e+06 1.03834e+06 1.04319e+06 1.05003e+06 1.04578e+06 1.04425e+06 1.04715e+06 1.04069e+06 1.0424e+06 1.04875e+06
1.04448e+06 1.04412e+06 1.04778e+06 1.04103e+06 1.04129e+06 1.04803e+06 1.04404e+06 1.0441e+06 1.04809e+06 1.0417e+06
1.04123e+06 1.04793e+06 1.04428e+06 1.04477e+06 1.04946e+06 1.04241e+06 1.04065e+06 1.04706e+06 1.04421e+06 1.04633e+06
1.05052e+06 1.04356e+06 1.0387e+06 1.04266e+06 1.04252e+06 1.05044e+06 1.05345e+06 1.04626e+06 1.03991e+06 1.03736e+06
1.04376e+06 1.05e+06 1.04721e+06 1.03956e+06 1.03944e+06 1.03606e+06 1.04108e+06 1.04716e+06 1.04299e+06 1.03979e+06
1.04277e+06 1.03707e+06 1.0388e+06 1.04504e+06 1.04034e+06 1.03992e+06 1.04359e+06 1.03757e+06 1.03808e+06 1.04405e+06
1.04004e+06 1.04009e+06 1.0441e+06 1.03802e+06 1.03761e+06 1.04358e+06 1.03992e+06 1.04046e+06 1.04474e+06 1.03949e+06
1.03774e+06 1.0434e+06 1.04047e+06 1.04242e+06 1.04652e+06 1.04032e+06 1.03529e+06 1.03866e+06 1.03877e+06 1.04534e+06
1.04811e+06 1.04173e+06 1.03528e+06 1.03307e+06 1.03917e+06 1.04446e+06 1.04212e+06 1.03472e+06 1.03433e+06 1.03147e+06
1.0367e+06 1.04199e+06 1.03802e+06 1.03596e+06 1.03923e+06 1.034e+06 1.03592e+06 1.04143e+06 1.03729e+06 1.03801e+06
1.04161e+06 1.0362e+06 1.03672e+06 1.04212e+06 1.03811e+06 1.03816e+06 1.04208e+06 1.03662e+06 1.03613e+06 1.04033e+06
1.03673e+06 1.0373e+06 1.04142e+06 1.03582e+06 1.03359e+06 1.0388e+06 1.03581e+06 1.03799e+06 1.04192e+06 1.03652e+06
1.0313e+06 1.03421e+06 1.03468e+06 1.04225e+06 1.04483e+06 1.03937e+06 1.03283e+06 1.03071e+06 1.03729e+06 1.04305e+06
1.04107e+06 1.03403e+06 1.03333e+06 1.03066e+06 1.03612e+06 1.04079e+06 1.037e+06 1.03477e+06 1.03783e+06 1.03166e+06
1.03381e+06 1.03879e+06 1.03476e+06 1.03424e+06 1.03753e+06 1.03242e+06 1.033e+06 1.03807e+06 1.03416e+06 1.03419e+06
1.03807e+06 1.03295e+06 1.03244e+06 1.03753e+06 1.03424e+06 1.03482e+06 1.03882e+06 1.03374e+06 1.03163e+06 1.03781e+06
1.03478e+06 1.0371e+06 1.04083e+06 1.03603e+06 1.03063e+06 1.03333e+06 1.03412e+06 1.0413e+06 1.0432e+06 1.03724e+06
1.03064e+06 1.02863e+06 1.03527e+06 1.03936e+06 1.03736e+06 1.03073e+06 1.02984e+06 1.02713e+06 1.03292e+06 1.03702e+06
1.03346e+06 1.03111e+06 1.03413e+06 1.02931e+06 1.0319e+06 1.03655e+06 1.03263e+06 1.0321e+06 1.03564e+06 1.03183e+06
1.03246e+06 1.03735e+06 1.03351e+06 1.03352e+06 1.03739e+06 1.03246e+06 1.03194e+06 1.03692e+06 1.03335e+06 1.03275e+06
1.03661e+06 1.03187e+06 1.02968e+06 1.03452e+06 1.03127e+06 1.03369e+06 1.03717e+06 1.03293e+06 1.02723e+06 1.02996e+06
1.03092e+06 1.03767e+06 1.03928e+06 1.03499e+06 1.02873e+06 1.02691e+06 1.03348e+06 1.03727e+06 1.03576e+06 1.03079e+06
1.0298e+06 1.02697e+06 1.03283e+06 1.03661e+06 1.03335e+06 1.03091e+06 1.03381e+06 1.02917e+06 1.03147e+06 1.0349e+06
1.03108e+06 1.03051e+06 1.03398e+06 1.02908e+06 1.02963e+06 1.03444e+06 1.03068e+06 1.03068e+06 1.03438e+06 1.02958e+06
1.0291e+06 1.03401e+06 1.03049e+06 1.03108e+06 1.03525e+06 1.03065e+06 1.02847e+06 1.03315e+06 1.03025e+06 1.0341e+06
1.03732e+06 1.0334e+06 1.02766e+06 1.03057e+06 1.03172e+06 1.03802e+06 1.03939e+06 1.03539e+06 1.02883e+06 1.02661e+06
1.03308e+06 1.03667e+06 1.03534e+06 1.02951e+06 1.0276e+06 1.02468e+06 1.03029e+06 1.03395e+06 1.03091e+06 1.02717e+06
1.02994e+06 1.02539e+06 1.02769e+06 1.03217e+06 1.0284e+06 1.02776e+06 1.0311e+06 1.02629e+06 1.02691e+06 1.03193e+06
1.02824e+06 1.02823e+06 1.03184e+06 1.027e+06 1.02652e+06 1.03134e+06 1.02793e+06 1.02857e+06 1.03214e+06 1.02904e+06
1.0269e+06 1.03151e+06 1.02872e+06 1.03121e+06 1.03375e+06 1.02998e+06 1.02451e+06 1.02754e+06 1.02858e+06 1.03316e+06
1.03431e+06 1.03053e+06 1.02413e+06 1.02257e+06 1.0286e+06 1.03203e+06 1.03094e+06 1.02551e+06 1.02439e+06 1.02153e+06
1.02688e+06 1.03044e+06 1.02767e+06 1.02524e+06 1.02812e+06 1.02353e+06 1.02575e+06 1.03028e+06 1.02677e+06 1.02738e+06
1.0306e+06 1.02583e+06 1.02646e+06 1.03137e+06 1.02761e+06 1.02759e+06 1.03112e+06 1.0262e+06 1.02581e+06 1.02934e+06
1.02604e+06 1.02672e+06 1.0301e+06 1.02554e+06 1.02329e+06 1.02794e+06 1.02522e+06 1.02763e+06 1.03028e+06 1.02664e+06
1.02145e+06 1.02453e+06 1.0257e+06 1.0311e+06 1.0322e+06 1.02856e+06 1.02236e+06 1.0209e+06 1.0269e+06 1.03158e+06
1.03078e+06 1.02582e+06 1.02436e+06 1.02146e+06 1.02646e+06 1.03001e+06 1.02747e+06 1.02517e+06 1.02784e+06 1.02191e+06
1.02395e+06 1.02852e+06 1.02522e+06 1.02448e+06 1.0274e+06 1.02256e+06 1.02322e+06 1.0281e+06 1.02466e+06 1.02462e+06
1.02794e+06 1.02308e+06 1.02269e+06 1.02757e+06 1.02455e+06 1.02521e+06 1.02836e+06 1.02377e+06 1.022e+06 1.02801e+06
1.02528e+06 1.02753e+06 1.02993e+06 1.02627e+06 1.02145e+06 1.02453e+06 1.02601e+06 1.03091e+06 1.03147e+06 1.02659e+06
1.02073e+06 1.01934e+06 1.02494e+06 1.02842e+06 1.02773e+06 1.02327e+06 1.02146e+06 1.01858e+06 1.0231e+06 1.02677e+06
1.02445e+06 1.02234e+06 1.02494e+06 1.02021e+06 1.02228e+06 1.02688e+06 1.02381e+06 1.02314e+06 1.02623e+06 1.02256e+06
1.02312e+06 1.02786e+06 1.02476e+06 1.0247e+06 1.0278e+06 1.02309e+06 1.02283e+06 1.02783e+06 1.02461e+06 1.02385e+06
1.02673e+06 1.02214e+06 1.02061e+06 1.02545e+06 1.02257e+06 1.0246e+06 1.02675e+06 1.02296e+06 1.01866e+06 1.02166e+06
1.02345e+06 1.0278e+06 1.02803e+06 1.02436e+06 1.01921e+06 1.01788e+06 1.02297e+06 1.02659e+06 1.02645e+06 1.02378e+06
1.02173e+06 1.01877e+06 1.02283e+06 1.02679e+06 1.02499e+06 1.02301e+06 1.02548e+06 1.02065e+06 1.0224e+06 1.0256e+06
1.02274e+06 1.02215e+06 1.02521e+06 1.02019e+06 1.02063e+06 1.0252e+06 1.02248e+06 1.0224e+06 1.02498e+06 1.02026e+06
1.02022e+06 1.02531e+06 1.0221e+06 1.02255e+06 1.02531e+06 1.0207e+06 1.01931e+06 1.02426e+06 1.02168e+06 1.0248e+06
1.02678e+06 1.02275e+06 1.01898e+06 1.02214e+06 1.02505e+06 1.02883e+06 1.02868e+06 1.02489e+06 1.02001e+06 1.01845e+06
1.02295e+06 1.02692e+06 1.02706e+06 1.02358e+06 1.02061e+06 1.01753e+06 1.02113e+06 1.02551e+06 1.02338e+06 1.02027e+06
1.02241e+06 1.01768e+06 1.01923e+06 1.02411e+06 1.02134e+06 1.02075e+06 1.02379e+06 1.01868e+06 1.01888e+06 1.02388e+06
1.02141e+06 1.02132e+06 1.02361e+06 1.01911e+06 1.01928e+06 1.02447e+06 1.02124e+06 1.02167e+06 1.02421e+06 1.02059e+06
1.01945e+06 1.02431e+06 1.02203e+06 1.02379e+06 1.02539e+06 1.02098e+06 1.01772e+06 1.021e+06 1.02303e+06 1.02515e+06
1.02471e+06 1.0206e+06 1.01636e+06 1.01512e+06 1.01884e+06 1.02302e+06 1.02345e+06 1.02044e+06 1.01835e+06 1.01537e+06
1.01845e+06 1.02314e+06 1.02113e+06 1.01926e+06 1.02129e+06 1.01668e+06 1.01801e+06 1.02298e+06 1.02045e+06 1.021e+06
1.02397e+06 1.01876e+06 1.01894e+06 1.02345e+06 1.02114e+06 1.02103e+06 1.02306e+06 1.01865e+06 1.0189e+06 1.02304e+06
1.01985e+06 1.02028e+06 1.02262e+06 1.0177e+06 1.0166e+06 1.02135e+06 1.01932e+06 1.021e+06 1.02278e+06 1.01813e+06
1.01543e+06 1.01872e+06 1.02068e+06 1.02344e+06 1.02287e+06 1.01858e+06 1.01499e+06 1.01374e+06 1.01691e+06 1.02259e+06
1.02338e+06 1.02073e+06 1.01877e+06 1.01571e+06 1.01811e+06 1.02302e+06 1.02127e+06 1.01946e+06 1.02113e+06 1.01552e+06
1.01641e+06 1.0214e+06 1.01918e+06 1.01856e+06 1.02122e+06 1.01592e+06 1.0161e+06 1.02064e+06 1.01857e+06 1.01844e+06
1.02029e+06 1.01587e+06 1.01617e+06 1.02159e+06 1.01868e+06 1.01908e+06 1.02108e+06 1.01617e+06 1.01577e+06 1.0215e+06
1.01963e+06 1.02123e+06 1.02272e+06 1.01786e+06 1.01587e+06 1.01909e+06 1.02088e+06 1.02323e+06 1.02209e+06 1.01635e+06
1.01355e+06 1.01228e+06 1.01493e+06 1.01902e+06 1.02013e+06 1.01791e+06 1.01603e+06 1.01355e+06 1.01528e+06 1.01932e+06
1.01826e+06 1.01664e+06 1.01824e+06 1.01422e+06 1.01505e+06 1.01925e+06 1.01761e+06 1.01712e+06 1.01947e+06 1.01601e+06
1.01617e+06 1.02026e+06 1.01843e+06 1.01828e+06 1.01996e+06 1.016e+06 1.01635e+06 1.02113e+06 1.01852e+06 1.01755e+06
1.01897e+06 1.01491e+06 1.0148e+06 1.01895e+06 1.01693e+06 1.01829e+06 1.01911e+06 1.01512e+06 1.01381e+06 1.01627e+06
1.01795e+06 1.01981e+06 1.01817e+06 1.01408e+06 1.01204e+06 1.01062e+06 1.01251e+06 1.0159e+06 1.01788e+06 1.01717e+06
1.01539e+06 1.01395e+06 1.01486e+06 1.0176e+06 1.01782e+06 1.0164e+06 1.01775e+06 1.01469e+06 1.015e+06 1.01675e+06
1.01584e+06 1.01545e+06 1.01699e+06 1.01358e+06 1.01375e+06 1.01713e+06 1.0156e+06 1.01542e+06 1.0167e+06 1.01303e+06
1.01342e+06 1.01697e+06 1.01523e+06 1.01528e+06 1.01601e+06 1.01321e+06 1.01341e+06 1.01657e+06 1.015e+06 1.01731e+06
1.01718e+06 1.01457e+06 1.01408e+06 1.01563e+06 1.01796e+06 1.01943e+06 1.01709e+06 1.01375e+06 1.01233e+06 1.01096e+06
1.01223e+06 1.01477e+06 1.01752e+06 1.016e+06 1.01353e+06 1.01342e+06 1.01369e+06 1.01449e+06 1.0152e+06 1.013e+06
1.01424e+06 1.01244e+06 1.01244e+06 1.01382e+06 1.01346e+06 1.01303e+06 1.01376e+06 1.01212e+06 1.01252e+06 1.01544e+06
1.01394e+06 1.01376e+06 1.01497e+06 1.01275e+06 1.01283e+06 1.01471e+06 1.01378e+06 1.01385e+06 1.01396e+06 1.01394e+06
1.01447e+06 1.0164e+06 1.01494e+06 1.01559e+06 1.01432e+06 1.0137e+06 1.01382e+06 1.01401e+06 1.01534e+06 1.01527e+06
1.01217e+06 1.00978e+06 1.00906e+06 1.00715e+06 1.00738e+06 1.00692e+06 1.01074e+06 1.00946e+06 1.00877e+06 1.0115e+06
1.01115e+06 1.00871e+06 1.0094e+06 1.00892e+06 1.01012e+06 1.01165e+06 1.01134e+06 1.0095e+06 1.00921e+06 1.00988e+06
1.01023e+06 1.01219e+06 1.01227e+06 1.01117e+06 1.01034e+06 1.01011e+06 1.01055e+06 1.01185e+06 1.01222e+06 1.00942e+06
1.0089e+06 1.00894e+06 1.00906e+06 1.01113e+06 1.01163e+06 1.01027e+06 1.00904e+06 1.0091e+06 1.00828e+06 1.01098e+06
1.01158e+06 1.00911e+06 1.00952e+06 1.01026e+06 1.00631e+06 1.00708e+06 1.00729e+06 
concMe 1 968 float
28.761 28.7551 28.7493 28.7525 28.7604 28.7574 28.7605 28.7616 28.7584 28.7665 28.7741
28.7612 28.7648 28.7654 28.7624 28.7747 28.775 28.7629 28.7659 28.7661 28.7634
28.7759 28.7758 28.7633 28.7661 28.7659 28.7629 28.7751 28.7748 28.7625 28.7654
28.7648 28.7612 28.7741 28.7665 28.7585 28.7617 28.7606 28.7574 28.7605 28.7526
28.7494 28.7551 28.7611 28.7697 28.781 28.7946 28.7987 28.7967 28.7949 28.7796
28.7872 28.8002 28.8013 28.8015 28.8003 28.7861 28.7885 28.8015 28.8024 28.8023
28.8013 28.7878 28.7883 28.8015 28.8025 28.8025 28.8015 28.7883 28.7878 28.8013
28.8023 28.8024 28.8015 28.7885 28.7861 28.8003 28.8015 28.8013 28.8002 28.7872
28.7796 28.7949 28.7967 28.7987 28.7946 28.781 28.7698 28.7799 28.7889 28.8007
28.7985 28.7914 28.7916 28.7816 28.7884 28.8001 28.7965 28.7953 28.7984 28.7856
28.7885 28.8004 28.7963 28.7959 28.7997 28.7873 28.7881 28.8001 28.7961 28.7961
28.8001 28.7881 28.7873 28.7997 28.7958 28.7963 28.8004 28.7886 28.7856 28.7984
28.7953 28.7965 28.8001 28.7885 28.7816 28.7916 28.7914 28.7985 28.8007 28.7889
28.7799 28.7807 28.7886 28.7987 28.7954 28.7855 28.7861 28.7768 28.7845 28.7955
28.7906 28.7889 28.7929 28.7808 28.7838 28.7951 28.7899 28.7894 28.7942 28.7824
28.7832 28.7947 28.7897 28.7896 28.7947 28.7832 28.7824 28.7942 28.7894 28.7899
28.7952 28.7839 28.7807 28.7928 28.7889 28.7906 28.7955 28.7845 28.7768 28.786
28.7855 28.7953 28.7987 28.7886 28.7807 28.7761 28.7854 28.7947 28.791 28.78
28.7799 28.7735 28.7809 28.7907 28.7853 28.783 28.7868 28.7773 28.7799 28.7898
28.7843 28.7837 28.7885 28.7788 28.7795 28.7892 28.784 28.784 28.7892 28.7795
28.7788 28.7885 28.7837 28.7843 28.7899 28.7799 28.7773 28.7868 28.783 28.7853
28.7907 28.7809 28.7735 28.7799 28.7799 28.791 28.7947 28.7853 28.7761 28.7712
28.7812 28.79 28.7864 28.7748 28.7743 28.7683 28.7766 28.7858 28.7802 28.7773
28.7815 28.7724 28.7751 28.7847 28.7789 28.7781 28.7832 28.7739 28.7747 28.784
28.7784 28.7784 28.784 28.7747 28.7739 28.7832 28.7781 28.7789 28.7848 28.7751
28.7723 28.7814 28.7772 28.7802 28.7859 28.7766 28.7684 28.7743 28.7747 28.7865
28.79 28.7813 28.7713 28.7666 28.7773 28.7852 28.7821 28.7702 28.7691 28.7637
28.7728 28.7812 28.7755 28.772 28.7766 28.7677 28.771 28.7799 28.7738 28.7729
28.7783 28.7694 28.7703 28.7791 28.7732 28.7732 28.7791 28.7703 28.7694 28.7783
28.7729 28.7738 28.7799 28.771 28.7677 28.7765 28.772 28.7755 28.7812 28.7729
28.7638 28.7692 28.7701 28.7821 28.7852 28.7774 28.7666 28.7618 28.7732 28.7805
28.7778 28.7659 28.7642 28.759 28.769 28.7767 28.771 28.767 28.7719 28.7631
28.7669 28.7753 28.769 28.768 28.7738 28.765 28.7659 28.7746 28.7684 28.7684
28.7746 28.7659 28.765 28.7738 28.768 28.769 28.7753 28.7669 28.763 28.7719
28.7669 28.771 28.7767 28.769 28.759 28.7642 28.7658 28.7777 28.7805 28.7733
28.7618 28.7571 28.7691 28.776 28.7736 28.7619 28.7599 28.7543 28.7653 28.7724
28.7668 28.7624 28.7675 28.7586 28.7628 28.771 28.7645 28.7635 28.7695 28.7605
28.7615 28.7703 28.7639 28.7639 28.7703 28.7616 28.7605 28.7694 28.7634 28.7645
28.771 28.7628 28.7585 28.7675 28.7623 28.7667 28.7724 28.7653 28.7544 28.7598
28.7618 28.7736 28.776 28.7692 28.7571 28.7525 28.765 28.7717 28.7695 28.7581
28.7558 28.7498 28.7614 28.7682 28.7626 28.7579 28.7631 28.7541 28.7585 28.7669
28.7603 28.7592 28.7654 28.7562 28.7572 28.7661 28.7596 28.7596 28.7661 28.7572
28.7561 28.7653 28.7592 28.7603 28.7669 28.7586 28.7541 28.7631 28.7579 28.7626
28.7682 28.7614 28.7498 28.7558 28.758 28.7694 28.7716 28.765 28.7525 28.748
28.7608 28.7674 28.7654 28.7544 28.7522 28.7458 28.7572 28.764 28.7588 28.7539
28.7591 28.7499 28.7544 28.763 28.7564 28.7551 28.7614 28.752 28.753 28.7623
28.7556 28.7556 28.7623 28.753 28.752 28.7613 28.7551 28.7564 28.763 28.7544
28.7498 28.7589 28.7538 28.7587 28.7641 28.7572 28.7458 28.7522 28.7544 28.7654
28.7675 28.7609 28.7481 28.7437 28.7567 28.7633 28.7616 28.7511 28.7486 28.7418
28.7531 28.7601 28.7551 28.7501 28.7553 28.7457 28.7503 28.7592 28.7527 28.7512
28.7574 28.7478 28.7489 28.7586 28.7518 28.7518 28.7587 28.7489 28.7478 28.7574
28.7512 28.7527 28.7592 28.7503 28.7457 28.7553 28.75 28.7551 28.7601 28.7532
28.7418 28.7485 28.751 28.7616 28.7633 28.7567 28.7437 28.7394 28.7523 28.759
28.7578 28.7479 28.7447 28.7378 28.7487 28.756 28.7512 28.7464 28.7519 28.7418
28.746 28.7554 28.7491 28.7475 28.7539 28.7437 28.7449 28.7549 28.7483 28.7483
28.755 28.7449 28.7437 28.7538 28.7475 28.7491 28.7554 28.7461 28.7418 28.7518
28.7464 28.7512 28.756 28.7488 28.7378 28.7446 28.7479 28.7578 28.759 28.7523
28.7394 28.7351 28.7476 28.7549 28.7542 28.7452 28.741 28.734 28.7441 28.7519
28.7475 28.743 28.7486 28.7379 28.7418 28.7515 28.7455 28.7441 28.7506 28.7398
28.7408 28.7508 28.7446 28.7447 28.7509 28.7408 28.7398 28.7505 28.7441 28.7455
28.7515 28.7418 28.7379 28.7485 28.743 28.7475 28.752 28.7442 28.734 28.7409
28.7451 28.7542 28.7549 28.7476 28.7351 28.7308 28.7426 28.7505 28.7506 28.7424
28.7377 28.7303 28.7395 28.7481 28.7439 28.7397 28.7451 28.7339 28.7376 28.7478
28.742 28.7409 28.7475 28.7362 28.7367 28.7467 28.7412 28.7412 28.7468 28.7367
28.7362 28.7474 28.7408 28.742 28.7478 28.7377 28.7339 28.7451 28.7397 28.744
28.7482 28.7396 28.7302 28.7376 28.7423 28.7505 28.7504 28.7426 28.7307 28.7263
28.7372 28.7462 28.747 28.7397 28.7347 28.7269 28.7352 28.7451 28.7408 28.7367
28.7415 28.7302 28.7335 28.7445 28.7389 28.7377 28.7445 28.7327 28.7327 28.743
28.7379 28.7379 28.7431 28.7327 28.7327 28.7444 28.7377 28.7389 28.7446 28.7335
28.7301 28.7414 28.7366 28.7408 28.7451 28.7352 28.7268 28.7347 28.7397 28.747
28.7463 28.7373 28.7264 28.7221 28.7319 28.7418 28.7432 28.7368 28.7319 28.7238
28.731 28.742 28.7378 28.7337 28.738 28.7266 28.7295 28.7411 28.7357 28.7344
28.7413 28.7289 28.7287 28.7391 28.7345 28.7345 28.7393 28.7287 28.7288 28.7413
28.7344 28.7357 28.7411 28.7295 28.7266 28.738 28.7337 28.7378 28.742 28.7311
28.7238 28.7318 28.7368 28.7432 28.7419 28.7319 28.7221 28.7175 28.7258 28.737
28.7393 28.7337 28.7291 28.7209 28.7266 28.7384 28.7347 28.7306 28.7347 28.7234
28.7251 28.7372 28.7324 28.7312 28.7381 28.7249 28.7247 28.7355 28.7312 28.7312
28.7357 28.7247 28.7248 28.738 28.7312 28.7325 28.7373 28.7251 28.7234 28.7346
28.7306 28.7348 28.7384 28.7266 28.7209 28.729 28.7336 28.7393 28.737 28.7258
28.7175 28.7129 28.7201 28.7308 28.7345 28.7297 28.7252 28.7184 28.7225 28.7327
28.7304 28.7267 28.7308 28.7203 28.7213 28.7318 28.7282 28.7273 28.7333 28.7213