# vtk DataFile Version 2.0
electrolyte_to_fuel
ASCII
DATASET POLYDATA
POINTS 1035 float
0.0035407 0 0 0.0035407 0.0005 0 0.0035407 0.0005 0.001 0.0035407 0
0.001 0.0035407 0.001 0 0.0035407 0.001 0.001 0.0035407 0.0015 0
0.0035407 0.0015 0.001 0.0035407 0.002 0 0.0035407 0.002 0.001 0.0035407
0.0025 0 0.0035407 0.0025 0.001 0.0035407 0.003 0 0.0035407 0.003
0.001 0.0035407 0.0035 0 0.0035407 0.0035 0.001 0.0035407 0.004 0
0.0035407 0.004 0.001 0.0035407 0.0045 0 0.0035407 0.0045 0.001 0.0035407
0.005 0 0.0035407 0.005 0.001 0.0035407 0.0055 0 0.0035407 0.0055
0.001 0.0035407 0.006 0 0.0035407 0.006 0.001 0.0035407 0.0065 0
0.0035407 0.0065 0.001 0.0035407 0.007 0 0.0035407 0.007 0.001 0.0035407
0.0075 0 0.0035407 0.0075 0.001 0.0035407 0.008 0 0.0035407 0.008
0.001 0.0035407 0.0085 0 0.0035407 0.0085 0.001 0.0035407 0.009 0
0.0035407 0.009 0.001 0.0035407 0.0095 0 0.0035407 0.0095 0.001 0.0035407
0.01 0 0.0035407 0.01 0.001 0.0035407 0.0105 0 0.0035407 0.0105
0.001 0.0035407 0.011 0 0.0035407 0.011 0.001 0.0035407 0.0115 0
0.0035407 0.0115 0.001 0.0035407 0.012 0 0.0035407 0.012 0.001 0.0035407
0.0125 0 0.0035407 0.0125 0.001 0.0035407 0.013 0 0.0035407 0.013
0.001 0.0035407 0.0135 0 0.0035407 0.0135 0.001 0.0035407 0.014 0
0.0035407 0.014 0.001 0.0035407 0.0145 0 0.0035407 0.0145 0.001 0.0035407
0.015 0 0.0035407 0.015 0.001 0.0035407 0.0155 0 0.0035407 0.0155
0.001 0.0035407 0.016 0 0.0035407 0.016 0.001 0.0035407 0.0165 0
0.0035407 0.0165 0.001 0.0035407 0.017 0 0.0035407 0.017 0.001 0.0035407
0.0175 0 0.0035407 0.0175 0.001 0.0035407 0.018 0 0.0035407 0.018
0.001 0.0035407 0.0185 0 0.0035407 0.0185 0.001 0.0035407 0.019 0
0.0035407 0.019 0.001 0.0035407 0.0195 0 0.0035407 0.0195 0.001 0.0035407
0.02 0 0.0035407 0.02 0.001 0.0035407 0.0205 0 0.0035407 0.0205
0.001 0.0035407 0.021 0 0.0035407 0.021 0.001 0.0035407 0.0215 0
0.0035407 0.0215 0.001 0.0035407 0.022 0 0.0035407 0.022 0.001 0.0035407
0.0005 0.002 0.0035407 0 0.002 0.0035407 0.001 0.002 0.0035407 0.0015
0.002 0.0035407 0.002 0.002 0.0035407 0.0025 0.002 0.0035407 0.003 0.002
0.0035407 0.0035 0.002 0.0035407 0.004 0.002 0.0035407 0.0045 0.002 0.0035407
0.005 0.002 0.0035407 0.0055 0.002 0.0035407 0.006 0.002 0.0035407 0.0065
0.002 0.0035407 0.007 0.002 0.0035407 0.0075 0.002 0.0035407 0.008 0.002
0.0035407 0.0085 0.002 0.0035407 0.009 0.002 0.0035407 0.0095 0.002 0.0035407
0.01 0.002 0.0035407 0.0105 0.002 0.0035407 0.011 0.002 0.0035407 0.0115
0.002 0.0035407 0.012 0.002 0.0035407 0.0125 0.002 0.0035407 0.013 0.002
0.0035407 0.0135 0.002 0.0035407 0.014 0.002 0.0035407 0.0145 0.002 0.0035407
0.015 0.002 0.0035407 0.0155 0.002 0.0035407 0.016 0.002 0.0035407 0.0165
0.002 0.0035407 0.017 0.002 0.0035407 0.0175 0.002 0.0035407 0.018 0.002
0.0035407 0.0185 0.002 0.0035407 0.019 0.002 0.0035407 0.0195 0.002 0.0035407
0.02 0.002 0.0035407 0.0205 0.002 0.0035407 0.021 0.002 0.0035407 0.0215
0.002 0.0035407 0.022 0.002 0.0035407 0.0005 0.003 0.0035407 0 0.003
0.0035407 0.001 0.003 0.0035407 0.0015 0.003 0.0035407 0.002 0.003 0.0035407
0.0025 0.003 0.0035407 0.003 0.003 0.0035407 0.0035 0.003 0.0035407 0.004
0.003 0.0035407 0.0045 0.003 0.0035407 0.005 0.003 0.0035407 0.0055 0.003
0.0035407 0.006 0.003 0.0035407 0.0065 0.003 0.0035407 0.007 0.003 0.0035407
0.0075 0.003 0.0035407 0.008 0.003 0.0035407 0.0085 0.003 0.0035407 0.009
0.003 0.0035407 0.0095 0.003 0.0035407 0.01 0.003 0.0035407 0.0105 0.003
0.0035407 0.011 0.003 0.0035407 0.0115 0.003 0.0035407 0.012 0.003 0.0035407
0.0125 0.003 0.0035407 0.013 0.003 0.0035407 0.0135 0.003 0.0035407 0.014
0.003 0.0035407 0.0145 0.003 0.0035407 0.015 0.003 0.0035407 0.0155 0.003
0.0035407 0.016 0.003 0.0035407 0.0165 0.003 0.0035407 0.017 0.003 0.0035407
0.0175 0.003 0.0035407 0.018 0.003 0.0035407 0.0185 0.003 0.0035407 0.019
0.003 0.0035407 0.0195 0.003 0.0035407 0.02 0.003 0.0035407 0.0205 0.003
0.0035407 0.021 0.003 0.0035407 0.0215 0.003 0.0035407 0.022 0.003 0.0035407
0.0005 0.004 0.0035407 0 0.004 0.0035407 0.001 0.004 0.0035407 0.0015
0.004 0.0035407 0.002 0.004 0.0035407 0.0025 0.004 0.0035407 0.003 0.004
0.0035407 0.0035 0.004 0.0035407 0.004 0.004 0.0035407 0.0045 0.004 0.0035407
0.005 0.004 0.0035407 0.0055 0.004 0.0035407 0.006 0.004 0.0035407 0.0065
0.004 0.0035407 0.007 0.004 0.0035407 0.0075 0.004 0.0035407 0.008 0.004
0.0035407 0.0085 0.004 0.0035407 0.009 0.004 0.0035407 0.0095 0.004 0.0035407
0.01 0.004 0.0035407 0.0105 0.004 0.0035407 0.011 0.004 0.0035407 0.0115
0.004 0.0035407 0.012 0.004 0.0035407 0.0125 0.004 0.0035407 0.013 0.004
0.0035407 0.0135 0.004 0.0035407 0.014 0.004 0.0035407 0.0145 0.004 0.0035407
0.015 0.004 0.0035407 0.0155 0.004 0.0035407 0.016 0.004 0.0035407 0.0165
0.004 0.0035407 0.017 0.004 0.0035407 0.0175 0.004 0.0035407 0.018 0.004
0.0035407 0.0185 0.004 0.0035407 0.019 0.004 0.0035407 0.0195 0.004 0.0035407
0.02 0.004 0.0035407 0.0205 0.004 0.0035407 0.021 0.004 0.0035407 0.0215
0.004 0.0035407 0.022 0.004 0.0035407 0.0005 0.005 0.0035407 0 0.005
0.0035407 0.001 0.005 0.0035407 0.0015 0.005 0.0035407 0.002 0.005 0.0035407
0.0025 0.005 0.0035407 0.003 0.005 0.0035407 0.0035 0.005 0.0035407 0.004
0.005 0.0035407 0.0045 0.005 0.0035407 0.005 0.005 0.0035407 0.0055 0.005
0.0035407 0.006 0.005 0.0035407 0.0065 0.005 0.0035407 0.007 0.005 0.0035407
0.0075 0.005 0.0035407 0.008 0.005 0.0035407 0.0085 0.005 0.0035407 0.009
0.005 0.0035407 0.0095 0.005 0.0035407 0.01 0.005 0.0035407 0.0105 0.005
0.0035407 0.011 0.005 0.0035407 0.0115 0.005 0.0035407 0.012 0.005 0.0035407
0.0125 0.005 0.0035407 0.013 0.005 0.0035407 0.0135 0.005 0.0035407 0.014
0.005 0.0035407 0.0145 0.005 0.0035407 0.015 0.005 0.0035407 0.0155 0.005
0.0035407 0.016 0.005 0.0035407 0.0165 0.005 0.0035407 0.017 0.005 0.0035407
0.0175 0.005 0.0035407 0.018 0.005 0.0035407 0.0185 0.005 0.0035407 0.019
0.005 0.0035407 0.0195 0.005 0.0035407 0.02 0.005 0.0035407 0.0205 0.005
0.0035407 0.021 0.005 0.0035407 0.0215 0.005 0.0035407 0.022 0.005 0.0035407
0.0005 0.006 0.0035407 0 0.006 0.0035407 0.001 0.006 0.0035407 0.0015
0.006 0.0035407 0.002 0.006 0.0035407 0.0025 0.006 0.0035407 0.003 0.006
0.0035407 0.0035 0.006 0.0035407 0.004 0.006 0.0035407 0.0045 0.006 0.0035407
0.005 0.006 0.0035407 0.0055 0.006 0.0035407 0.006 0.006 0.0035407 0.0065
0.006 0.0035407 0.007 0.006 0.0035407 0.0075 0.006 0.0035407 0.008 0.006
0.0035407 0.0085 0.006 0.0035407 0.009 0.006 0.0035407 0.0095 0.006 0.0035407
0.01 0.006 0.0035407 0.0105 0.006 0.0035407 0.011 0.006 0.0035407 0.0115
0.006 0.0035407 0.012 0.006 0.0035407 0.0125 0.006 0.0035407 0.013 0.006
0.0035407 0.0135 0.006 0.0035407 0.014 0.006 0.0035407 0.0145 0.006 0.0035407
0.015 0.006 0.0035407 0.0155 0.006 0.0035407 0.016 0.006 0.0035407 0.0165
0.006 0.0035407 0.017 0.006 0.0035407 0.0175 0.006 0.0035407 0.018 0.006
0.0035407 0.0185 0.006 0.0035407 0.019 0.006 0.0035407 0.0195 0.006 0.0035407
0.02 0.006 0.0035407 0.0205 0.006 0.0035407 0.021 0.006 0.0035407 0.0215
0.006 0.0035407 0.022 0.006 0.0035407 0.0005 0.007 0.0035407 0 0.007
0.0035407 0.001 0.007 0.0035407 0.0015 0.007 0.0035407 0.002 0.007 0.0035407
0.0025 0.007 0.0035407 0.003 0.007 0.0035407 0.0035 0.007 0.0035407 0.004
0.007 0.0035407 0.0045 0.007 0.0035407 0.005 0.007 0.0035407 0.0055 0.007
0.0035407 0.006 0.007 0.0035407 0.0065 0.007 0.0035407 0.007 0.007 0.0035407
0.0075 0.007 0.0035407 0.008 0.007 0.0035407 0.0085 0.007 0.0035407 0.009
0.007 0.0035407 0.0095 0.007 0.0035407 0.01 0.007 0.0035407 0.0105 0.007
0.0035407 0.011 0.007 0.0035407 0.0115 0.007 0.0035407 0.012 0.007 0.0035407
0.0125 0.007 0.0035407 0.013 0.007 0.0035407 0.0135 0.007 0.0035407 0.014
0.007 0.0035407 0.0145 0.007 0.0035407 0.015 0.007 0.0035407 0.0155 0.007
0.0035407 0.016 0.007 0.0035407 0.0165 0.007 0.0035407 0.017 0.007 0.0035407
0.0175 0.007 0.0035407 0.018 0.007 0.0035407 0.0185 0.007 0.0035407 0.019
0.007 0.0035407 0.0195 0.007 0.0035407 0.02 0.007 0.0035407 0.0205 0.007
0.0035407 0.021 0.007 0.0035407 0.0215 0.007 0.0035407 0.022 0.007 0.0035407
0.0005 0.008 0.0035407 0 0.008 0.0035407 0.001 0.008 0.0035407 0.0015
0.008 0.0035407 0.002 0.008 0.0035407 0.0025 0.008 0.0035407 0.003 0.008
0.0035407 0.0035 0.008 0.0035407 0.004 0.008 0.0035407 0.0045 0.008 0.0035407
0.005 0.008 0.0035407 0.0055 0.008 0.0035407 0.006 0.008 0.0035407 0.0065
0.008 0.0035407 0.007 0.008 0.0035407 0.0075 0.008 0.0035407 0.008 0.008
0.0035407 0.0085 0.008 0.0035407 0.009 0.008 0.0035407 0.0095 0.008 0.0035407
0.01 0.008 0.0035407 0.0105 0.008 0.0035407 0.011 0.008 0.0035407 0.0115
0.008 0.0035407 0.012 0.008 0.0035407 0.0125 0.008 0.0035407 0.013 0.008
0.0035407 0.0135 0.008 0.0035407 0.014 0.008 0.0035407 0.0145 0.008 0.0035407
0.015 0.008 0.0035407 0.0155 0.008 0.0035407 0.016 0.008 0.0035407 0.0165
0.008 0.0035407 0.017 0.008 0.0035407 0.0175 0.008 0.0035407 0.018 0.008
0.0035407 0.0185 0.008 0.0035407 0.019 0.008 0.0035407 0.0195 0.008 0.0035407
0.02 0.008 0.0035407 0.0205 0.008 0.0035407 0.021 0.008 0.0035407 0.0215
0.008 0.0035407 0.022 0.008 0.0035407 0.0005 0.009 0.0035407 0 0.009
0.0035407 0.001 0.009 0.0035407 0.0015 0.009 0.0035407 0.002 0.009 0.0035407
0.0025 0.009 0.0035407 0.003 0.009 0.0035407 0.0035 0.009 0.0035407 0.004
0.009 0.0035407 0.0045 0.009 0.0035407 0.005 0.009 0.0035407 0.0055 0.009
0.0035407 0.006 0.009 0.0035407 0.0065 0.009 0.0035407 0.007 0.009 0.0035407
0.0075 0.009 0.0035407 0.008 0.009 0.0035407 0.0085 0.009 0.0035407 0.009
0.009 0.0035407 0.0095 0.009 0.0035407 0.01 0.009 0.0035407 0.0105 0.009
0.0035407 0.011 0.009 0.0035407 0.0115 0.009 0.0035407 0.012 0.009 0.0035407
0.0125 0.009 0.0035407 0.013 0.009 0.0035407 0.0135 0.009 0.0035407 0.014
0.009 0.0035407 0.0145 0.009 0.0035407 0.015 0.009 0.0035407 0.0155 0.009
0.0035407 0.016 0.009 0.0035407 0.0165 0.009 0.0035407 0.017 0.009 0.0035407
0.0175 0.009 0.0035407 0.018 0.009 0.0035407 0.0185 0.009 0.0035407 0.019
0.009 0.0035407 0.0195 0.009 0.0035407 0.02 0.009 0.0035407 0.0205 0.009
0.0035407 0.021 0.009 0.0035407 0.0215 0.009 0.0035407 0.022 0.009 0.0035407
[...]
CELL_DATA 968
FIELD attributes 16
patchID 1 968 float
1 1 1 1 1 1 1 1 1 1 1
1 1 1 1 1 1 1 1 1 1
1 1 1 1 1 1 1 1 1 1
1 1 1 1 1 1 1 1 1 1
1 1 1 1 1 1 1 1 1 1
1 1 1 1 1 1 1 1 1 1
1 1 1 1 1 1 1 1 1 1
1 1 1 1 1 1 1 1 1 1
1 1 1 1 1 1 1 1 1 1
1 1 1 1 1 1 1 1 1 1
1 1 1 1 1 1 1 1 1 1
1 1 1 1 1 1 1 1 1 1
1 1 1 1 1 1 1 1 1 1
1 1 1 1 1 1 1 1 1 1
1 1 1 1 1 1 1 1 1 1
1 1 1 1 1 1 1 1 1 1
1 1 1 1 1 1 1 1 1 1
1 1 1 1 1 1 1 1 1 1
1 1 1 1 1 1 1 1 1 1
1 1 1 1 1 1 1 1 1 1
1 1 1 1 1 1 1 1 1 1
1 1 1 1 1 1 1 1 1 1
1 1 1 1 1 1 1 1 1 1
1 1 1 1 1 1 1 1 1 1
1 1 1 1 1 1 1 1 1 1
1 1 1 1 1 1 1 1 1 1
1 1 1 1 1 1 1 1 1 1
1 1 1 1 1 1 1 1 1 1
1 1 1 1 1 1 1 1 1 1
1 1 1 1 1 1 1 1 1 1
1 1 1 1 1 1 1 1 1 1
1 1 1 1 1 1 1 1 1 1
1 1 1 1 1 1 1 1 1 1
1 1 1 1 1 1 1 1 1 1
1 1 1 1 1 1 1 1 1 1
1 1 1 1 1 1 1 1 1 1
1 1 1 1 1 1 1 1 1 1
1 1 1 1 1 1 1 1 1 1
1 1 1 1 1 1 1 1 1 1
1 1 1 1 1 1 1 1 1 1
1 1 1 1 1 1 1 1 1 1
1 1 1 1 1 1 1 1 1 1
1 1 1 1 1 1 1 1 1 1
1 1 1 1 1 1 1 1 1 1
1 1 1 1 1 1 1 1 1 1
1 1 1 1 1 1 1 1 1 1
1 1 1 1 1 1 1 1 1 1
1 1 1 1 1 1 1 1 1 1
1 1 1 1 1 1 1 1 1 1
1 1 1 1 1 1 1 1 1 1
1 1 1 1 1 1 1 1 1 1
1 1 1 1 1 1 1 1 1 1
1 1 1 1 1 1 1 1 1 1
1 1 1 1 1 1 1 1 1 1
1 1 1 1 1 1 1 1 1 1
1 1 1 1 1 1 1 1 1 1
1 1 1 1 1 1 1 1 1 1
1 1 1 1 1 1 1 1 1 1
1 1 1 1 1 1 1 1 1 1
1 1 1 1 1 1 1 1 1 1
1 1 1 1 1 1 1 1 1 1
1 1 1 1 1 1 1 1 1 1
1 1 1 1 1 1 1 1 1 1
1 1 1 1 1 1 1 1 1 1
1 1 1 1 1 1 1 1 1 1
1 1 1 1 1 1 1 1 1 1
1 1 1 1 1 1 1 1 1 1
1 1 1 1 1 1 1 1 1 1
1 1 1 1 1 1 1 1 1 1
1 1 1 1 1 1 1 1 1 1
1 1 1 1 1 1 1 1 1 1
1 1 1 1 1 1 1 1 1 1
1 1 1 1 1 1 1 1 1 1
1 1 1 1 1 1 1 1 1 1
1 1 1 1 1 1 1 1 1 1
1 1 1 1 1 1 1 1 1 1
1 1 1 1 1 1 1 1 1 1
1 1 1 1 1 1 1 1 1 1
1 1 1 1 1 1 1 1 1 1
1 1 1 1 1 1 1 1 1 1
1 1 1 1 1 1 1 1 1 1
1 1 1 1 1 1 1 1 1 1
1 1 1 1 1 1 1 1 1 1
1 1 1 1 1 1 1 1 1 1
1 1 1 1 1 1 1 1 1 1
1 1 1 1 1 1 1 1 1 1
1 1 1 1 1 1 1 1 1 1
1 1 1 1 1 1 1 1 1 1
1 1 1 1 1 1 1 1 1 1
1 1 1 1 1 1 1 1 1 1
1 1 1 1 1 1 1 1 1 1
1 1 1 1 1 1 1 1 1 1
1 1 1 1 1 1 1 1 1 1
1 1 1 1 1 1 1 1 1 1
1 1 1 1 1 1 1 1 1 1
1 1 1 1 1 1 1 1 1 1
1 1 1 1 1 1 1 
electrochemicalHeating 1 968 float
206178 210685 215521 216024 215834 214964 210141 210426 215023 215462 214877
214419 209733 209822 214450 214673 214663 214216 209562 209596 214224
214657 214654 214214 209580 209735 214394 214833 214839 214394 210201
210124 214821 215273 215290 214836 210243 209971 214790 215291 215022
214476 209607 205067 204868 208334 212462 213047 212870 212147 207984
208318 212277 212887 212860 212374 208299 208436 212438 213062 213484
212832 208785 208830 212862 213490 213484 212842 208816 208796 212411
213049 213052 212415 208416 208126 212206 212859 212878 212256 208302
207994 212160 212869 213029 212596 208461 204857 203825 206953 211463
212226 212042 211122 207279 207625 211310 212088 212044 211186 206973
207131 210844 211642 211616 210600 206856 206909 210643 211453 211443
210616 206891 206874 210629 211629 211632 210816 207111 206988 211213
212053 212078 211283 207609 207296 211147 212046 212201 211404 206895
203820 202632 205230 209477 210375 210215 209018 205480 205716 209295
210282 210220 209099 205571 205861 209426 210452 210418 209324 206222
206266 209828 210880 210866 209795 206247 206244 209797 210871 210442
209394 205842 205770 209314 210237 210274 209266 205700 205503 209053
210223 210345 209229 204990 202632 201577 203828 208230 209578 209882
208518 205051 205221 208844 209982 209902 208611 205123 205212 208369
209536 209496 208256 204727 204590 208126 209334 209318 208087 204574
204583 208125 209341 209352 208372 204800 204757 208256 209524 210133
208979 205368 205241 208721 210403 210491 209095 204686 202496 201670
203710 208215 209834 209739 207932 204477 204618 208354 209575 209005
207600 204063 204137 207790 208900 208860 207506 203918 203949 207526
208858 208841 207484 203916 204075 207682 209012 209018 207702 204403
204377 207936 209317 209377 208123 204405 204310 207775 209234 208931
207268 202784 200821 199965 201755 206392 208178 208115 206541 203035
203191 207005 208306 208207 206877 203225 203287 207031 208414 208718
207278 203586 203614 207316 208725 208707 207271 203588 203610 206980
208392 208393 206983 203258 203102 206772 208220 208284 206957 203159
203050 206567 208105 208114 206423 201791 199930 199169 201074 206212
208127 208101 206491 202854 202985 206897 208287 208195 206651 202563
202617 206458 207912 207876 206220 202440 202469 206278 207745 207726
206232 202443 202466 206268 207896 207893 206411 202590 202589 206698
208213 208268 206852 202957 202874 206522 208094 208063 206096 200967
199138 198469 200380 205327 207193 207201 205569 201822 201930 205901
207366 207290 205717 201867 202053 205952 207480 207449 205863 202361
202406 206313 207825 207806 206266 202380 202388 206252 207811 207463
205907 202029 202041 205915 207314 207353 205861 201907 201846 205604
207198 207130 205068 200132 198442 197856 199788 204862 206957 207340
205690 201836 201926 205949 207490 207437 205842 201937 201923 205480
207100 207083 205440 201565 201485 205439 206993 206973 205392 201466
201460 205353 206967 206945 205476 201609 201678 205599 207164 207651
206089 202079 202038 205904 207823 207721 205566 200487 198628 198271
200234 205422 207603 207672 205731 201802 201871 205918 207522 207040
205429 201510 201434 205287 206827 206835 205169 201244 201294 205258
206871 206851 205210 201257 201380 205327 206964 206917 205184 201639
201770 205714 207296 207286 205646 201621 201603 205538 207156 206727
204495 199333 197458 197004 198858 204094 206349 206452 204778 200817
200869 204912 206572 206562 205064 201152 201013 204820 206585 206915
205242 201280 201295 205248 206929 206909 205200 201267 201308 204998
206640 206560 204767 200982 201055 204986 206576 206546 204858 200833
200830 204801 206432 206267 204076 198847 196954 196553 198546 204132
206460 206594 204914 200944 200952 204969 206692 206707 205076 200876
200703 204487 206284 206348 204552 200595 200560 204480 206209 206189
204431 200533 200623 204602 206369 206264 204438 200676 200906 205126
206727 206672 204920 200921 200963 204944 206579 206384 203997 198422
196511 196155 198161 203495 205767 205936 204268 200326 200272 204207
205996 206042 204401 200485 200435 204209 206024 206104 204428 200768
200693 204581 206354 206333 204533 200666 200796 204770 206419 206007
204164 200412 200640 204578 206067 205982 204165 200247 200349 204303
205927 205695 203244 197923 196122 195805 197828 203213 205647 206144
204494 200589 200457 204314 206157 206235 204585 200648 200494 203997
205812 205898 204223 200291 200066 203913 205704 205684 203864 200048
200211 204161 205807 205680 204000 200236 200447 204400 206019 206350
204485 200642 200821 204741 206625 206358 203860 198470 196525 196413
198450 203866 206369 206607 204726 200867 200662 204411 206294 205939
204287 200338 200210 203993 205648 205738 204065 200144 200028 203814
205624 205604 203766 199988 200266 204208 205853 205722 203875 200375
200560 204532 206155 206002 204089 200360 200614 204479 206054 205474
202920 197533 195587 195330 197248 202633 205198 205483 203898 200093
199832 203462 205379 205522 203982 200044 199917 203668 205499 205867
204185 200249 200156 203950 205756 205735 203900 200128 200278 203964
205616 205475 203616 199887 199960 203916 205537 205354 203408 199794
200104 203918 205458 205110 202596 197220 195278 195037 197038 202606
205293 205649 204091 200318 200029 203532 205497 205679 204020 199825
199712 203399 205260 205366 203544 199640 199578 203344 205152 205132
203294 199550 199669 203595 205387 205240 203350 199685 199853 204070
205698 205476 203481 199996 200336 204118 205630 205208 202464 196909
194994 194747 196662 201715 204534 205026 203485 199696 199459 202804
204831 205044 203326 199486 199508 203080 205005 205112 203319 199794
199752 203423 205290 205269 203373 199724 199823 203640 205405 204987
203034 199483 199627 203489 205069 204814 202757 199431 199719 203517
205011 204453 201468 196431 194712 194438 196266 201121 204264 205160
203621 199857 199628 202839 204942 205183 203392 199636 199563 202773
204768 204871 202990 199316 199185 202757 204683 204662 202706 199169
199251 202946 204796 204652 202792 199344 199473 203246 205006 205187
203055 199860 200141 203917 205667 204977 201770 196916 195170 194928
196422 200322 204230 205187 203043 199878 199683 202263 204755 204513
202267 199214 199154 201984 204214 204299 201968 198993 198980 201886
204224 204202 201836 198938 199103 202102 204405 204276 201851 199291
199406 202482 204701 204419 201898 199341 199585 202754 204580 203290
199347 195485 194089 193421 194309 196896 200893 202522 200536 198438
198285 199996 202474 202692 200402 198379 198336 200235 202695 203009
200552 198578 198579 200545 202986 202964 200496 198553 198604 200345
202774 202671 200185 198308 198298 200341 202706 202443 199938 198244
198441 200544 202478 200780 196844 194288 193392 
concMe 1 968 float
28.7522 28.7756 28.7922 28.7946 28.7943 28.7922 28.7757 28.7768 28.7924 28.7944 28.7944
28.7924 28.7765 28.7768 28.7925 28.7945 28.7945 28.7925 28.7767 28.7768 28.7925
28.7945 28.7945 28.7925 28.7768 28.7767 28.7925 28.7945 28.7945 28.7925 28.7768
28.7764 28.7924 28.7944 28.7944 28.7924 28.7769 28.7758 28.7922 28.7943 28.7947
28.7924 28.7757 28.7525 28.7512 28.7707 28.7862 28.7886 28.7882 28.7856 28.7696
28.7711 28.786 28.7884 28.7883 28.7859 28.7703 28.7709 28.786 28.7884 28.7883
28.7859 28.7705 28.7707 28.786 28.7883 28.7883 28.786 28.7707 28.7705 28.786
28.7884 28.7884 28.786 28.7709 28.7703 28.7859 28.7883 28.7884 28.7861 28.7711
28.7696 28.7857 28.7882 28.7886 28.7862 28.7708 28.7513 28.744 28.763 28.7802
28.7831 28.7826 28.7794 28.7628 28.7645 28.78 28.7829 28.7828 28.7797 28.7635
28.7642 28.78 28.7829 28.7829 28.7799 28.7639 28.7641 28.7799 28.7829 28.7829
28.7799 28.7641 28.7639 28.7799 28.7829 28.7829 28.78 28.7642 28.7635 28.7797
28.7828 28.7829 28.78 28.7645 28.7628 28.7794 28.7826 28.7831 28.7802 28.763
28.7441 28.7346 28.7529 28.7739 28.7781 28.7777 28.7731 28.7558 28.7571 28.7742
28.778 28.7778 28.7736 28.7564 28.757 28.774 28.778 28.7779 28.7738 28.7566
28.7568 28.7739 28.7779 28.7779 28.7739 28.7568 28.7566 28.7737 28.7779 28.778
28.774 28.7569 28.7564 28.7735 28.7778 28.778 28.7742 28.7571 28.7558 28.7731
28.7777 28.7781 28.7739 28.753 28.7347 28.7251 28.7431 28.768 28.7737 28.7733
28.7677 28.7488 28.7498 28.7691 28.7738 28.7735 28.7682 28.7494 28.7498 28.7689
28.7738 28.7737 28.7686 28.7497 28.7498 28.7687 28.7738 28.7738 28.7687 28.7498
28.7497 28.7686 28.7737 28.7738 28.7689 28.7498 28.7494 28.7682 28.7736 28.7738
28.7691 28.7498 28.7488 28.7677 28.7733 28.7737 28.7679 28.743 28.7251 28.7155
28.7335 28.7622 28.7697 28.7695 28.7628 28.7422 28.7431 28.7648 28.7702 28.77
28.7637 28.7428 28.7431 28.7645 28.7703 28.7702 28.7642 28.743 28.7431 28.7641
28.7701 28.7701 28.7641 28.7431 28.743 28.7642 28.7701 28.7703 28.7645 28.7431
28.7427 28.7637 28.7699 28.7703 28.7648 28.7431 28.7423 28.7628 28.7695 28.7698
28.7623 28.7337 28.7156 28.7059 28.7249 28.7575 28.7665 28.7664 28.7588 28.7362
28.7372 28.7612 28.7673 28.767 28.76 28.7366 28.7369 28.7606 28.7672 28.7671
28.7603 28.7368 28.7368 28.7603 28.767 28.767 28.7603 28.7368 28.7368 28.7603
28.7671 28.7672 28.7606 28.7369 28.7366 28.76 28.767 28.7673 28.7612 28.7373
28.7362 28.7588 28.7664 28.7665 28.7576 28.7249 28.706 28.6964 28.7168 28.7534
28.7636 28.7637 28.7555 28.7305 28.7314 28.7577 28.7646 28.7643 28.7566 28.731
28.7313 28.7572 28.7645 28.7645 28.757 28.7312 28.7312 28.757 28.7645 28.7645
28.757 28.7312 28.7312 28.757 28.7645 28.7645 28.7572 28.7313 28.731 28.7566
28.7643 28.7646 28.7577 28.7314 28.7305 28.7555 28.7637 28.7636 28.7535 28.7169
28.6965 28.6873 28.7093 28.7498 28.7611 28.7614 28.7527 28.7255 28.7262 28.7545
28.7622 28.762 28.7537 28.726 28.7261 28.754 28.7621 28.7621 28.7538 28.7261
28.7262 28.7541 28.7621 28.7621 28.7541 28.7262 28.726 28.7537 28.762 28.7621
28.754 28.7261 28.7259 28.7537 28.762 28.7623 28.7546 28.7263 28.7255 28.7527
28.7614 28.7611 28.7499 28.7094 28.6874 28.6786 28.7024 28.7465 28.7588 28.7592
28.7502 28.7208 28.7215 28.7516 28.76 28.7598 28.7512 28.7218 28.7214 28.7508
28.7598 28.7598 28.7508 28.7215 28.7218 28.7514 28.76 28.76 28.7514 28.7218
28.7215 28.7509 28.7598 28.7598 28.7508 28.7215 28.7218 28.7512 28.7599 28.76
28.7516 28.7215 28.7208 28.7501 28.7591 28.7588 28.7465 28.7024 28.6786 28.6703
28.6958 28.7432 28.7566 28.7571 28.7478 28.7166 28.7171 28.7488 28.7579 28.7579
28.7489 28.7183 28.7173 28.7477 28.7576 28.7577 28.7483 28.7173 28.7175 28.7486
28.7579 28.7579 28.7486 28.7175 28.7173 28.7483 28.7577 28.7576 28.7477 28.7173
28.7183 28.7489 28.7579 28.7579 28.7488 28.7171 28.7167 28.7478 28.7572 28.7566
28.7433 28.696 28.6704 28.6626 28.6898 28.7402 28.7546 28.7554 28.7456 28.713
28.7133 28.7463 28.7561 28.7562 28.7468 28.7153 28.7136 28.7449 28.7555 28.7558
28.746 28.7137 28.7135 28.7458 28.7558 28.7558 28.7458 28.7135 28.7137 28.7461
28.7558 28.7555 28.7449 28.7136 28.7153 28.7468 28.7562 28.7561 28.7463 28.7133
28.713 28.7456 28.7554 28.7546 28.7402 28.6899 28.6627 28.6553 28.6841 28.7373
28.7526 28.7536 28.7435 28.7099 28.7098 28.7437 28.7542 28.7544 28.7448 28.7124
28.7103 28.7424 28.7536 28.7541 28.7441 28.7107 28.7101 28.7432 28.7539 28.7539
28.7433 28.7101 28.7107 28.7441 28.7541 28.7536 28.7424 28.7103 28.7125 28.7448
28.7544 28.7542 28.7437 28.7098 28.7099 28.7435 28.7536 28.7527 28.7373 28.6842
28.6553 28.6483 28.6786 28.7345 28.7508 28.752 28.7418 28.7076 28.7067 28.7411
28.7525 28.7528 28.7428 28.7094 28.7073 28.7403 28.7519 28.7525 28.7422 28.708
28.7069 28.7408 28.7521 28.7521 28.7408 28.7069 28.708 28.7421 28.7525 28.7519
28.7402 28.7073 28.7094 28.7428 28.7528 28.7525 28.7411 28.7068 28.7076 28.7418
28.752 28.7509 28.7345 28.6787 28.6484 28.6418 28.6736 28.732 28.7491 28.7505
28.7402 28.7057 28.704 28.7386 28.7506 28.7512 28.7409 28.7064 28.7044 28.7384
28.7503 28.751 28.7404 28.7057 28.7041 28.7387 28.7504 28.7504 28.7387 28.7041
28.7057 28.7404 28.751 28.7503 28.7384 28.7044 28.7065 28.7409 28.7512 28.7506
28.7386 28.704 28.7057 28.7401 28.7505 28.749 28.732 28.6736 28.6418 28.6356
28.6686 28.7292 28.7473 28.749 28.7386 28.7041 28.7015 28.7361 28.7488 28.7496
28.739 28.7035 28.7017 28.7365 28.7487 28.7494 28.7386 28.7032 28.7015 28.7365
28.7487 28.7487 28.7365 28.7015 28.7032 28.7386 28.7494 28.7487 28.7365 28.7017
28.7035 28.739 28.7496 28.7488 28.7361 28.7016 28.7042 28.7387 28.749 28.7474
28.7293 28.6688 28.6358 28.6298 28.664 28.7265 28.7456 28.7477 28.7374 28.7028
28.6994 28.7338 28.7471 28.7481 28.7373 28.7011 28.6992 28.7345 28.7472 28.7479
28.7368 28.7004 28.6989 28.7346 28.7471 28.7471 28.7346 28.6989 28.7004 28.7368
28.7479 28.7472 28.7345 28.6993 28.7011 28.7373 28.7481 28.7471 28.7338 28.6995
28.7028 28.7374 28.7477 28.7457 28.7265 28.6641 28.6299 28.6241 28.6589 28.7228
28.7436 28.7462 28.7358 28.701 28.6973 28.7312 28.7453 28.7466 28.7355 28.6985
28.6968 28.7323 28.7455 28.7463 28.7348 28.6976 28.6965 28.7328 28.7456 28.7456
28.7328 28.6965 28.6976 28.7348 28.7464 28.7455 28.7323 28.6968 28.6985 28.7355
28.7466 28.7453 28.7312 28.6973 28.701 28.7358 28.7462 28.7437 28.7229 28.659
28.6243 28.6182 28.6527 28.7169 28.7409 28.7445 28.734 28.6981 28.6949 28.7282
28.7433 28.7448 28.7329 28.6957 28.6942 28.7296 28.7437 28.7446 28.732 28.6948
28.6939 28.7302 28.7438 28.7438 28.7302 28.6939 28.6948 28.732 28.7445 28.7437
28.7296 28.6942 28.6957 28.7329 28.7448 28.7433 28.7282 28.695 28.6981 28.734
28.7445 28.741 28.717 28.6528 28.6183 28.6115 28.6457 28.7108 28.7381 28.7426
28.7319 28.6953 28.6922 28.725 28.7412 28.743 28.7302 28.6927 28.6914 28.7268
28.7418 28.7427 28.729 28.6919 28.6912 28.7276 28.742 28.742 28.7276 28.6912
28.6919 28.7291 28.7427 28.7419 28.7268 28.6914 28.6927 28.7302 28.743 28.7412
28.725 28.6922 28.6953 28.7319 28.7426 28.738 28.7108 28.6457 28.6115 28.6019
28.6313 28.6907 28.7302 28.7377 28.7233 28.6902 28.6874 28.7156 28.7366 28.7386
28.7208 28.6879 28.6867 28.7176 28.7375 28.7383 28.7196 28.6872 28.6866 28.7185
28.7377 28.7377 28.7185 28.6866 28.6872 28.7196 28.7383 28.7375 28.7176 28.6867
28.6879 28.7208 28.7386 28.7367 28.7157 28.6874 28.6903 28.7233 28.7378 28.7303
28.6909 28.6315 28.6021 28.5858 28.6068 28.6546 28.708 28.724 28.7051 28.68
28.6775 28.6986 28.7237 28.7258 28.7027 28.6779 28.6769 28.7003 28.7248 28.7255
28.7015 28.6772 28.6768 28.7009 28.7251 28.7251 28.7009 28.6768 28.6772 28.7016
28.7255 28.7248 28.7003 28.677 28.6779 28.7027 28.7258 28.7237 28.6986 28.6776
28.68 28.7051 28.724 28.708 28.6547 28.6069 28.5859 
iLC 1 968 float
41060.3 41232.4 41401.6 41433.1 41432.1 41406.5 41278.8 41284 41408.2 41432.4 41432.4
41407.8 41282.3 41283.3 41408.1 41432.7 41432.6 41408.1 41283.1 41283.1 41408.1
41432.6 41432.6 41408.1 41283.1 41282.9 41408 41432.5 41432.6 41408.1 41282.9
41281.7 41407.4 41432.2 41432.5 41408.4 41284.3 41279.1 41406.7 41432.5 41433.8
41402.6 41234.2 41063 41015 41178.7 41362.9 41404.5 41403.8 41369.7 41236.2
41241.8 41372.3 41404.5 41404.2 41371 41239.1 41240.2 41371.5 41404.2 41403.9
41371 41239.3 41239.5 41371.1 41403.9 41403.9 41371.1 41239.5 41239.3 41371.2
41404.1 41404.2 41371.5 41240.1 41239 41371 41404.1 41404.5 41372.4 41241.9
41236.4 41369.8 41404 41404.8 41363.3 41179.5 41016.4 40942.1 41101.7 41318
41374.3 41374.6 41331.5 41185.6 41191.6 41334.9 41376.1 41375.6 41333.3 41189
41190.2 41334.2 41376 41375.9 41333.9 41189.7 41189.8 41334 41376 41376
41334 41189.9 41189.6 41333.9 41375.9 41376 41334.2 41190.2 41188.9 41333.2
41375.6 41376.1 41335 41191.7 41185.6 41331.5 41374.7 41374.5 41318.4 41102.4
40943.1 40858 41014.7 41270.5 41344.6 41346.9 41294.2 41137.4 41140.7 41299
41349.5 41348.7 41296.7 41139.5 41140 41297.4 41348.9 41348.7 41296.9 41139.4
41139.5 41296.9 41348.5 41348.5 41296.9 41139.5 41139.3 41296.6 41348.4 41348.9
41297.4 41140 41139.3 41296.5 41348.7 41349.5 41299.1 41140.7 41137.4 41294.2
41347 41344.7 41270.9 41015.5 40858.8 40779.7 40942.5 41227.5 41316.8 41321.4
41262.2 41095 41097.3 41267.5 41325.1 41324.2 41265 41096.7 41097.1 41266.1
41324.6 41324.5 41265.7 41097.2 41097.4 41265.9 41324.6 41324.6 41265.9 41097.4
41097.3 41265.7 41324.5 41324.7 41266.1 41097.4 41097 41265.2 41324.4 41325
41267.4 41097.2 41094.9 41262.1 41321.1 41316.3 41227.1 40942.2 40779.3 40707.8
40879.3 41187.6 41290.4 41298.3 41234.9 41058.9 41060.7 41239.8 41303.1 41302.7
41238.2 41061 41061.2 41238.7 41302.9 41302.8 41238.6 41061.4 41061.5 41238.7
41302.8 41302.9 41238.8 41061.5 41061.3 41238.5 41302.7 41302.9 41238.8 41061.1
41060.8 41238 41302.5 41303.2 41239.9 41060.9 41059.1 41235 41298.6 41290.9
41188.3 40880.3 40708.9 40645.3 40826.5 41154.6 41267.7 41278.3 41211.9 41029
41030.6 41216.4 41284 41283.4 41215.1 41030.7 41030.8 41215.3 41283.4 41283.1
41215.1 41030.7 41030.6 41214.9 41283 41283.1 41214.9 41030.7 41030.6 41215.2
41283.3 41283.4 41215.3 41030.8 41030.7 41215.1 41283.4 41284 41216.6 41030.7
41029.1 41212 41278.4 41267.9 41154.9 40827 40646 40590.1 40780.2 41124.9
41246.3 41259.5 41191.2 41002.8 41004.1 41195.3 41266 41265.7 41194.7 41005.1
41004.9 41194.3 41265.6 41265.6 41194.7 41005 41005 41194.8 41265.7 41265.8
41194.9 41005 41005 41194.7 41265.6 41265.6 41194.4 41004.9 41005 41194.6
41265.7 41266.1 41195.4 41004.2 41002.8 41191.2 41259.5 41246.5 41125.2 40780.8
40590.8 40541.9 40739.8 41098.6 41227 41242.4 41173 40980.6 40981.8 41176.5
41249.8 41249.7 41176.6 40982.9 40982.4 41175.7 41249.2 41249.4 41176.3 40982.3
40982.2 41175.9 41249.2 41249.3 41176 40982.2 40982.2 41176.1 41249.2 41249.3
41175.8 40982.4 40982.7 41176.4 41249.7 41249.9 41176.6 40981.8 40980.6 41173
41242.5 41227.1 41099 40740.4 40542.4 40499.4 40704 41074.5 41208.5 41225.9
41155.8 40960.6 40961.4 41158.9 41234.2 41234.3 41159.6 40963 40962.4 41158.9
41234.1 41234.4 41159.9 40963.6 40962.7 41158.7 41234 41234.1 41158.8 40962.8
40963.6 41159.9 41234.5 41234.3 41158.9 40962.6 40963.2 41159.7 41234.5 41234.1
41158.9 40961.3 40960.4 41155.6 41225.6 41208.1 41074.2 40703.8 40499.1 40461
40671.3 41051.6 41190.6 41210.1 41139.7 40942.9 40943.1 41142.5 41219.5 41220.1