# vtk DataFile Version 2.0
airInlet
ASCII
DATASET POLYDATA
POINTS 1085 float
0.0015 0.001 0 0.0015 0.0015 0 0.00155 0.0015 0 0.00155 0.001
0 0.0015 0.002 0 0.00155 0.002 0 0.0015 0.0025 0
0.00155 0.0025 0 0.0015 0.003 0 0.00155 0.003 0 0.0015
0.004 0 0.0015 0.0045 0 0.00155 0.0045 0 0.00155 0.004
0 0.0015 0.005 0 0.00155 0.005 0 0.0015 0.0055 0
0.00155 0.0055 0 0.0015 0.006 0 0.00155 0.006 0 0.0015
0.007 0 0.0015 0.0075 0 0.00155 0.0075 0 0.00155 0.007
0 0.0015 0.008 0 0.00155 0.008 0 0.0015 0.0085 0
0.00155 0.0085 0 0.0015 0.009 0 0.00155 0.009 0 0.0015
0.01 0 0.0015 0.0105 0 0.00155 0.0105 0 0.00155 0.01
0 0.0015 0.011 0 0.00155 0.011 0 0.0015 0.0115 0
0.00155 0.0115 0 0.0015 0.012 0 0.00155 0.012 0 0.0015
0.013 0 0.0015 0.0135 0 0.00155 0.0135 0 0.00155 0.013
0 0.0015 0.014 0 0.00155 0.014 0 0.0015 0.0145 0
0.00155 0.0145 0 0.0015 0.015 0 0.00155 0.015 0 0.0015
0.016 0 0.0015 0.0165 0 0.00155 0.0165 0 0.00155 0.016
0 0.0015 0.017 0 0.00155 0.017 0 0.0015 0.0175 0
0.00155 0.0175 0 0.0015 0.018 0 0.00155 0.018 0 0.0015
0.019 0 0.0015 0.0195 0 0.00155 0.0195 0 0.00155 0.019
0 0.0015 0.02 0 0.00155 0.02 0 0.0015 0.0205 0
0.00155 0.0205 0 0.0015 0.021 0 0.00155 0.021 0 0.0016
0.0015 0 0.0016 0.001 0 0.0016 0.002 0 0.0016 0.0025
0 0.0016 0.003 0 0.0016 0.0045 0 0.0016 0.004 0
0.0016 0.005 0 0.0016 0.0055 0 0.0016 0.006 0 0.0016
0.0075 0 0.0016 0.007 0 0.0016 0.008 0 0.0016 0.0085
0 0.0016 0.009 0 0.0016 0.0105 0 0.0016 0.01 0
0.0016 0.011 0 0.0016 0.0115 0 0.0016 0.012 0 0.0016
0.0135 0 0.0016 0.013 0 0.0016 0.014 0 0.0016 0.0145
0 0.0016 0.015 0 0.0016 0.0165 0 0.0016 0.016 0
0.0016 0.017 0 0.0016 0.0175 0 0.0016 0.018 0 0.0016
0.0195 0 0.0016 0.019 0 0.0016 0.02 0 0.0016 0.0205
0 0.0016 0.021 0 0.00165 0.0015 0 0.00165 0.001 0
0.00165 0.002 0 0.00165 0.0025 0 0.00165 0.003 0 0.00165
0.0045 0 0.00165 0.004 0 0.00165 0.005 0 0.00165 0.0055
0 0.00165 0.006 0 0.00165 0.0075 0 0.00165 0.007 0
0.00165 0.008 0 0.00165 0.0085 0 0.00165 0.009 0 0.00165
0.0105 0 0.00165 0.01 0 0.00165 0.011 0 0.00165 0.0115
0 0.00165 0.012 0 0.00165 0.0135 0 0.00165 0.013 0
0.00165 0.014 0 0.00165 0.0145 0 0.00165 0.015 0 0.00165
0.0165 0 0.00165 0.016 0 0.00165 0.017 0 0.00165 0.0175
0 0.00165 0.018 0 0.00165 0.0195 0 0.00165 0.019 0
0.00165 0.02 0 0.00165 0.0205 0 0.00165 0.021 0 0.0017
0.0015 0 0.0017 0.001 0 0.0017 0.002 0 0.0017 0.0025
0 0.0017 0.003 0 0.0017 0.0045 0 0.0017 0.004 0
0.0017 0.005 0 0.0017 0.0055 0 0.0017 0.006 0 0.0017
0.0075 0 0.0017 0.007 0 0.0017 0.008 0 0.0017 0.0085
0 0.0017 0.009 0 0.0017 0.0105 0 0.0017 0.01 0
0.0017 0.011 0 0.0017 0.0115 0 0.0017 0.012 0 0.0017
0.0135 0 0.0017 0.013 0 0.0017 0.014 0 0.0017 0.0145
0 0.0017 0.015 0 0.0017 0.0165 0 0.0017 0.016 0
0.0017 0.017 0 0.0017 0.0175 0 0.0017 0.018 0 0.0017
0.0195 0 0.0017 0.019 0 0.0017 0.02 0 0.0017 0.0205
0 0.0017 0.021 0 0.00175 0.0015 0 0.00175 0.001 0
0.00175 0.002 0 0.00175 0.0025 0 0.00175 0.003 0 0.00175
0.0045 0 0.00175 0.004 0 0.00175 0.005 0 0.00175 0.0055
0 0.00175 0.006 0 0.00175 0.0075 0 0.00175 0.007 0
0.00175 0.008 0 0.00175 0.0085 0 0.00175 0.009 0 0.00175
0.0105 0 0.00175 0.01 0 0.00175 0.011 0 0.00175 0.0115
0 0.00175 0.012 0 0.00175 0.0135 0 0.00175 0.013 0
0.00175 0.014 0 0.00175 0.0145 0 0.00175 0.015 0 0.00175
0.0165 0 0.00175 0.016 0 0.00175 0.017 0 0.00175 0.0175
0 0.00175 0.018 0 0.00175 0.0195 0 0.00175 0.019 0
0.00175 0.02 0 0.00175 0.0205 0 0.00175 0.021 0 0.0018
0.0015 0 0.0018 0.001 0 0.0018 0.002 0 0.0018 0.0025
0 0.0018 0.003 0 0.0018 0.0045 0 0.0018 0.004 0
0.0018 0.005 0 0.0018 0.0055 0 0.0018 0.006 0 0.0018
0.0075 0 0.0018 0.007 0 0.0018 0.008 0 0.0018 0.0085
0 0.0018 0.009 0 0.0018 0.0105 0 0.0018 0.01 0
0.0018 0.011 0 0.0018 0.0115 0 0.0018 0.012 0 0.0018
0.0135 0 0.0018 0.013 0 0.0018 0.014 0 0.0018 0.0145
0 0.0018 0.015 0 0.0018 0.0165 0 0.0018 0.016 0
0.0018 0.017 0 0.0018 0.0175 0 0.0018 0.018 0 0.0018
0.0195 0 0.0018 0.019 0 0.0018 0.02 0 0.0018 0.0205
0 0.0018 0.021 0 0.00185 0.0015 0 0.00185 0.001 0
0.00185 0.002 0 0.00185 0.0025 0 0.00185 0.003 0 0.00185
0.0045 0 0.00185 0.004 0 0.00185 0.005 0 0.00185 0.0055
0 0.00185 0.006 0 0.00185 0.0075 0 0.00185 0.007 0
0.00185 0.008 0 0.00185 0.0085 0 0.00185 0.009 0 0.00185
0.0105 0 0.00185 0.01 0 0.00185 0.011 0 0.00185 0.0115
0 0.00185 0.012 0 0.00185 0.0135 0 0.00185 0.013 0
0.00185 0.014 0 0.00185 0.0145 0 0.00185 0.015 0 0.00185
0.0165 0 0.00185 0.016 0 0.00185 0.017 0 0.00185 0.0175
0 0.00185 0.018 0 0.00185 0.0195 0 0.00185 0.019 0
0.00185 0.02 0 0.00185 0.0205 0 0.00185 0.021 0 0.0019
0.0015 0 0.0019 0.001 0 0.0019 0.002 0 0.0019 0.0025
0 0.0019 0.003 0 0.0019 0.0045 0 0.0019 0.004 0
0.0019 0.005 0 0.0019 0.0055 0 0.0019 0.006 0 0.0019
0.0075 0 0.0019 0.007 0 0.0019 0.008 0 0.0019 0.0085
0 0.0019 0.009 0 0.0019 0.0105 0 0.0019 0.01 0
0.0019 0.011 0 0.0019 0.0115 0 0.0019 0.012 0 0.0019
0.0135 0 0.0019 0.013 0 0.0019 0.014 0 0.0019 0.0145
0 0.0019 0.015 0 0.0019 0.0165 0 0.0019 0.016 0
0.0019 0.017 0 0.0019 0.0175 0 0.0019 0.018 0 0.0019
0.0195 0 0.0019 0.019 0 0.0019 0.02 0 0.0019 0.0205
0 0.0019 0.021 0 0.00195 0.0015 0 0.00195 0.001 0
0.00195 0.002 0 0.00195 0.0025 0 0.00195 0.003 0 0.00195
0.0045 0 0.00195 0.004 0 0.00195 0.005 0 0.00195 0.0055
0 0.00195 0.006 0 0.00195 0.0075 0 0.00195 0.007 0
0.00195 0.008 0 0.00195 0.0085 0 0.00195 0.009 0 0.00195
0.0105 0 0.00195 0.01 0 0.00195 0.011 0 0.00195 0.0115
0 0.00195 0.012 0 0.00195 0.0135 0 0.00195 0.013 0
0.00195 0.014 0 0.00195 0.0145 0 0.00195 0.015 0 0.00195
0.0165 0 0.00195 0.016 0 0.00195 0.017 0 0.00195 0.0175
0 0.00195 0.018 0 0.00195 0.0195 0 0.00195 0.019 0
0.00195 0.02 0 0.00195 0.0205 0 0.00195 0.021 0 0.002
0.0015 0 0.002 0.001 0 0.002 0.002 0 0.002 0.0025
0 0.002 0.003 0 0.002 0.0045 0 0.002 0.004 0
0.002 0.005 0 0.002 0.0055 0 0.002 0.006 0 0.002
0.0075 0 0.002 0.007 0 0.002 0.008 0 0.002 0.0085
0 0.002 0.009 0 0.002 0.0105 0 0.002 0.01 0
0.002 0.011 0 0.002 0.0115 0 0.002 0.012 0 0.002
0.0135 0 0.002 0.013 0 0.002 0.014 0 0.002 0.0145
0 0.002 0.015 0 0.002 0.0165 0 0.002 0.016 0
0.002 0.017 0 0.002 0.0175 0 0.002 0.018 0 0.002
0.0195 0 0.002 0.019 0 0.002 0.02 0 0.002 0.0205
0 0.002 0.021 0 0.00205 0.0015 0 0.00205 0.001 0
0.00205 0.002 0 0.00205 0.0025 0 0.00205 0.003 0 0.00205
0.0045 0 0.00205 0.004 0 0.00205 0.005 0 0.00205 0.0055
0 0.00205 0.006 0 0.00205 0.0075 0 0.00205 0.007 0
0.00205 0.008 0 0.00205 0.0085 0 0.00205 0.009 0 0.00205
0.0105 0 0.00205 0.01 0 0.00205 0.011 0 0.00205 0.0115
0 0.00205 0.012 0 0.00205 0.0135 0 0.00205 0.013 0
0.00205 0.014 0 0.00205 0.0145 0 0.00205 0.015 0 0.00205
0.0165 0 0.00205 0.016 0 0.00205 0.017 0 0.00205 0.0175
0 0.00205 0.018 0 0.00205 0.0195 0 0.00205 0.019 0
0.00205 0.02 0 0.00205 0.0205 0 0.00205 0.021 0 0.0021
0.0015 0 0.0021 0.001 0 0.0021 0.002 0 0.0021 0.0025
0 0.0021 0.003 0 0.0021 0.0045 0 0.0021 0.004 0
0.0021 0.005 0 0.0021 0.0055 0 0.0021 0.006 0 0.0021
0.0075 0 0.0021 0.007 0 0.0021 0.008 0 0.0021 0.0085
0 0.0021 0.009 0 0.0021 0.0105 0 0.0021 0.01 0
0.0021 0.011 0 0.0021 0.0115 0 0.0021 0.012 0 0.0021
0.0135 0 0.0021 0.013 0 0.0021 0.014 0 0.0021 0.0145
0 0.0021 0.015 0 0.0021 0.0165 0 0.0021 0.016 0
0.0021 0.017 0 0.0021 0.0175 0 0.0021 0.018 0 0.0021
0.0195 0 0.0021 0.019 0 0.0021 0.02 0 0.0021 0.0205
0 0.0021 0.021 0 0.00215 0.0015 0 0.00215 0.001 0
0.00215 0.002 0 0.00215 0.0025 0 0.00215 0.003 0 0.00215
0.0045 0 0.00215 0.004 0 0.00215 0.005 0 0.00215 0.0055
0 0.00215 0.006 0 0.00215 0.0075 0 0.00215 0.007 0
0.00215 0.008 0 0.00215 0.0085 0 0.00215 0.009 0 0.00215
0.0105 0 0.00215 0.01 0 0.00215 0.011 0 0.00215 0.0115
0 0.00215 0.012 0 0.00215 0.0135 0 0.00215 0.013 0
0.00215 0.014 0 0.00215 0.0145 0 0.00215 0.015 0 0.00215
0.0165 0 0.00215 0.016 0 0.00215 0.017 0 0.00215 0.0175
0 0.00215 0.018 0 0.00215 0.0195 0 0.00215 0.019 0
0.00215 0.02 0 0.00215 0.0205 0 0.00215 0.021 0 0.0022
0.0015 0 0.0022 0.001 0 0.0022 0.002 0 0.0022 0.0025
0 0.0022 0.003 0 0.0022 0.0045 0 0.0022 0.004 0
0.0022 0.005 0 0.0022 0.0055 0 0.0022 0.006 0 0.0022
0.0075 0 0.0022 0.007 0 0.0022 0.008 0 0.0022 0.0085
0 0.0022 0.009 0 0.0022 0.0105 0 0.0022 0.01 0
0.0022 0.011 0 0.0022 0.0115 0 0.0022 0.012 0 0.0022
0.0135 0 0.0022 0.013 0 0.0022 0.014 0 0.0022 0.0145
0 0.0022 0.015 0 0.0022 0.0165 0 0.0022 0.016 0
0.0022 0.017 0 0.0022 0.0175 0 0.0022 0.018 0 0.0022
0.0195 0 0.0022 0.019 0 0.0022 0.02 0 0.0022 0.0205
0 0.0022 0.021 0 0.00225 0.0015 0 0.00225 0.001 0
0.00225 0.002 0 0.00225 0.0025 0 0.00225 0.003 0 0.00225
0.0045 0 0.00225 0.004 0 0.00225 0.005 0 0.00225 0.0055
0 0.00225 0.006 0 0.00225 0.0075 0 0.00225 0.007 0
0.00225 0.008 0 0.00225 0.0085 0 0.00225 0.009 0 0.00225
0.0105 0 0.00225 0.01 0 0.00225 0.011 0 0.00225 0.0115
0 0.00225 0.012 0 0.00225 0.0135 0 0.00225 0.013 0
0.00225 0.014 0 0.00225 0.0145 0 0.00225 0.015 0 0.00225
0.0165 0 0.00225 0.016 0 0.00225 0.017 0 0.00225 0.0175
0 0.00225 0.018 0 0.00225 0.0195 0 0.00225 0.019 0
0.00225 0.02 0 0.00225 0.0205 0 0.00225 0.021 0 0.0023
0.0015 0 0.0023 0.001 0 0.0023 0.002 0 0.0023 0.0025
0 0.0023 0.003 0 0.0023 0.0045 0 0.0023 0.004 0
0.0023 0.005 0 0.0023 0.0055 0 0.0023 0.006 0 0.0023
0.0075 0 0.0023 0.007 0 0.0023 0.008 0 0.0023 0.0085
0 0.0023 0.009 0 0.0023 0.0105 0 0.0023 0.01 0
0.0023 0.011 0 0.0023 0.0115 0 0.0023 0.012 0 0.0023
0.0135 0 0.0023 0.013 0 0.0023 0.014 0 0.0023 0.0145
0 0.0023 0.015 0 0.0023 0.0165 0 0.0023 0.016 0
0.0023 0.017 0 0.0023 0.0175 0 0.0023 0.018 0 0.0023
0.0195 0 0.0023 0.019 0 0.0023 0.02 0 0.0023 0.0205
0 0.0023 0.021 0 0.00235 0.0015 0 0.00235 0.001 0
0.00235 0.002 0 0.00235 0.0025 0 0.00235 0.003 0 0.00235
0.0045 0 0.00235 0.004 0 0.00235 0.005 0 0.00235 0.0055
0 0.00235 0.006 0 0.00235 0.0075 0 0.00235 0.007 0
0.00235 0.008 0 0.00235 0.0085 0 0.00235 0.009 0 0.00235
0.0105 0 0.00235 0.01 0 0.00235 0.011 0 0.00235 0.0115
0 0.00235 0.012 0 0.00235 0.0135 0 0.00235 0.013 0
0.00235 0.014 0 0.00235 0.0145 0 0.00235 0.015 0 0.00235
0.0165 0 0.00235 0.016 0 0.00235 0.017 0 0.00235 0.0175
0 0.00235 0.018 0 0.00235 0.0195 0 0.00235 0.019 0
[...]
CELL_DATA 840
FIELD attributes 16
patchID 1 840 float
0 0 0 0 0 0 0 0 0 0 0
0 0 0 0 0 0 0 0 0 0
0 0 0 0 0 0 0 0 0 0
0 0 0 0 0 0 0 0 0 0
0 0 0 0 0 0 0 0 0 0
0 0 0 0 0 0 0 0 0 0
0 0 0 0 0 0 0 0 0 0
0 0 0 0 0 0 0 0 0 0
0 0 0 0 0 0 0 0 0 0
0 0 0 0 0 0 0 0 0 0
0 0 0 0 0 0 0 0 0 0
0 0 0 0 0 0 0 0 0 0
0 0 0 0 0 0 0 0 0 0
0 0 0 0 0 0 0 0 0 0
0 0 0 0 0 0 0 0 0 0
0 0 0 0 0 0 0 0 0 0
0 0 0 0 0 0 0 0 0 0
0 0 0 0 0 0 0 0 0 0
0 0 0 0 0 0 0 0 0 0
0 0 0 0 0 0 0 0 0 0
0 0 0 0 0 0 0 0 0 0
0 0 0 0 0 0 0 0 0 0
0 0 0 0 0 0 0 0 0 0
0 0 0 0 0 0 0 0 0 0
0 0 0 0 0 0 0 0 0 0
0 0 0 0 0 0 0 0 0 0
0 0 0 0 0 0 0 0 0 0
0 0 0 0 0 0 0 0 0 0
0 0 0 0 0 0 0 0 0 0
0 0 0 0 0 0 0 0 0 0
0 0 0 0 0 0 0 0 0 0
0 0 0 0 0 0 0 0 0 0
0 0 0 0 0 0 0 0 0 0
0 0 0 0 0 0 0 0 0 0
0 0 0 0 0 0 0 0 0 0
0 0 0 0 0 0 0 0 0 0
0 0 0 0 0 0 0 0 0 0
0 0 0 0 0 0 0 0 0 0
0 0 0 0 0 0 0 0 0 0
0 0 0 0 0 0 0 0 0 0
0 0 0 0 0 0 0 0 0 0
0 0 0 0 0 0 0 0 0 0
0 0 0 0 0 0 0 0 0 0
0 0 0 0 0 0 0 0 0 0
0 0 0 0 0 0 0 0 0 0
0 0 0 0 0 0 0 0 0 0
0 0 0 0 0 0 0 0 0 0
0 0 0 0 0 0 0 0 0 0
0 0 0 0 0 0 0 0 0 0
0 0 0 0 0 0 0 0 0 0
0 0 0 0 0 0 0 0 0 0
0 0 0 0 0 0 0 0 0 0
0 0 0 0 0 0 0 0 0 0
0 0 0 0 0 0 0 0 0 0
0 0 0 0 0 0 0 0 0 0
0 0 0 0 0 0 0 0 0 0
0 0 0 0 0 0 0 0 0 0
0 0 0 0 0 0 0 0 0 0
0 0 0 0 0 0 0 0 0 0
0 0 0 0 0 0 0 0 0 0
0 0 0 0 0 0 0 0 0 0
0 0 0 0 0 0 0 0 0 0
0 0 0 0 0 0 0 0 0 0
0 0 0 0 0 0 0 0 0 0
0 0 0 0 0 0 0 0 0 0
0 0 0 0 0 0 0 0 0 0
0 0 0 0 0 0 0 0 0 0
0 0 0 0 0 0 0 0 0 0
0 0 0 0 0 0 0 0 0 0
0 0 0 0 0 0 0 0 0 0
0 0 0 0 0 0 0 0 0 0
0 0 0 0 0 0 0 0 0 0
0 0 0 0 0 0 0 0 0 0
0 0 0 0 0 0 0 0 0 0
0 0 0 0 0 0 0 0 0 0
0 0 0 0 0 0 0 0 0 0
0 0 0 0 0 0 0 0 0 0
0 0 0 0 0 0 0 0 0 0
0 0 0 0 0 0 0 0 0 0
0 0 0 0 0 0 0 0 0 0
0 0 0 0 0 0 0 0 0 0
0 0 0 0 0 0 0 0 0 0
0 0 0 0 0 0 0 0 0 0
0 0 0 0 0 0 0 0 0 
YH2Oair 1 840 float
0.15 0.15 0.15 0.15 0.15 0.15 0.15 0.15 0.15 0.15 0.15
0.15 0.15 0.15 0.15 0.15 0.15 0.15 0.15 0.15 0.15
0.15 0.15 0.15 0.15 0.15 0.15 0.15 0.15 0.15 0.15
0.15 0.15 0.15 0.15 0.15 0.15 0.15 0.15 0.15 0.15
0.15 0.15 0.15 0.15 0.15 0.15 0.15 0.15 0.15 0.15
0.15 0.15 0.15 0.15 0.15 0.15 0.15 0.15 0.15 0.15
0.15 0.15 0.15 0.15 0.15 0.15 0.15 0.15 0.15 0.15
0.15 0.15 0.15 0.15 0.15 0.15 0.15 0.15 0.15 0.15
0.15 0.15 0.15 0.15 0.15 0.15 0.15 0.15 0.15 0.15
0.15 0.15 0.15 0.15 0.15 0.15 0.15 0.15 0.15 0.15
0.15 0.15 0.15 0.15 0.15 0.15 0.15 0.15 0.15 0.15
0.15 0.15 0.15 0.15 0.15 0.15 0.15 0.15 0.15 0.15
0.15 0.15 0.15 0.15 0.15 0.15 0.15 0.15 0.15 0.15
0.15 0.15 0.15 0.15 0.15 0.15 0.15 0.15 0.15 0.15
0.15 0.15 0.15 0.15 0.15 0.15 0.15 0.15 0.15 0.15
0.15 0.15 0.15 0.15 0.15 0.15 0.15 0.15 0.15 0.15
0.15 0.15 0.15 0.15 0.15 0.15 0.15 0.15 0.15 0.15
0.15 0.15 0.15 0.15 0.15 0.15 0.15 0.15 0.15 0.15
0.15 0.15 0.15 0.15 0.15 0.15 0.15 0.15 0.15 0.15
0.15 0.15 0.15 0.15 0.15 0.15 0.15 0.15 0.15 0.15
0.15 0.15 0.15 0.15 0.15 0.15 0.15 0.15 0.15 0.15
0.15 0.15 0.15 0.15 0.15 0.15 0.15 0.15 0.15 0.15
0.15 0.15 0.15 0.15 0.15 0.15 0.15 0.15 0.15 0.15
0.15 0.15 0.15 0.15 0.15 0.15 0.15 0.15 0.15 0.15
0.15 0.15 0.15 0.15 0.15 0.15 0.15 0.15 0.15 0.15
0.15 0.15 0.15 0.15 0.15 0.15 0.15 0.15 0.15 0.15
0.15 0.15 0.15 0.15 0.15 0.15 0.15 0.15 0.15 0.15
0.15 0.15 0.15 0.15 0.15 0.15 0.15 0.15 0.15 0.15
0.15 0.15 0.15 0.15 0.15 0.15 0.15 0.15 0.15 0.15
0.15 0.15 0.15 0.15 0.15 0.15 0.15 0.15 0.15 0.15
0.15 0.15 0.15 0.15 0.15 0.15 0.15 0.15 0.15 0.15
0.15 0.15 0.15 0.15 0.15 0.15 0.15 0.15 0.15 0.15
0.15 0.15 0.15 0.15 0.15 0.15 0.15 0.15 0.15 0.15
0.15 0.15 0.15 0.15 0.15 0.15 0.15 0.15 0.15 0.15
0.15 0.15 0.15 0.15 0.15 0.15 0.15 0.15 0.15 0.15
0.15 0.15 0.15 0.15 0.15 0.15 0.15 0.15 0.15 0.15
0.15 0.15 0.15 0.15 0.15 0.15 0.15 0.15 0.15 0.15
0.15 0.15 0.15 0.15 0.15 0.15 0.15 0.15 0.15 0.15
0.15 0.15 0.15 0.15 0.15 0.15 0.15 0.15 0.15 0.15
0.15 0.15 0.15 0.15 0.15 0.15 0.15 0.15 0.15 0.15
0.15 0.15 0.15 0.15 0.15 0.15 0.15 0.15 0.15 0.15
0.15 0.15 0.15 0.15 0.15 0.15 0.15 0.15 0.15 0.15
0.15 0.15 0.15 0.15 0.15 0.15 0.15 0.15 0.15 0.15
0.15 0.15 0.15 0.15 0.15 0.15 0.15 0.15 0.15 0.15
0.15 0.15 0.15 0.15 0.15 0.15 0.15 0.15 0.15 0.15
0.15 0.15 0.15 0.15 0.15 0.15 0.15 0.15 0.15 0.15
0.15 0.15 0.15 0.15 0.15 0.15 0.15 0.15 0.15 0.15
0.15 0.15 0.15 0.15 0.15 0.15 0.15 0.15 0.15 0.15
0.15 0.15 0.15 0.15 0.15 0.15 0.15 0.15 0.15 0.15
0.15 0.15 0.15 0.15 0.15 0.15 0.15 0.15 0.15 0.15
0.15 0.15 0.15 0.15 0.15 0.15 0.15 0.15 0.15 0.15
0.15 0.15 0.15 0.15 0.15 0.15 0.15 0.15 0.15 0.15
0.15 0.15 0.15 0.15 0.15 0.15 0.15 0.15 0.15 0.15
0.15 0.15 0.15 0.15 0.15 0.15 0.15 0.15 0.15 0.15
0.15 0.15 0.15 0.15 0.15 0.15 0.15 0.15 0.15 0.15
0.15 0.15 0.15 0.15 0.15 0.15 0.15 0.15 0.15 0.15
0.15 0.15 0.15 0.15 0.15 0.15 0.15 0.15 0.15 0.15
0.15 0.15 0.15 0.15 0.15 0.15 0.15 0.15 0.15 0.15
0.15 0.15 0.15 0.15 0.15 0.15 0.15 0.15 0.15 0.15
0.15 0.15 0.15 0.15 0.15 0.15 0.15 0.15 0.15 0.15
0.15 0.15 0.15 0.15 0.15 0.15 0.15 0.15 0.15 0.15
0.15 0.15 0.15 0.15 0.15 0.15 0.15 0.15 0.15 0.15
0.15 0.15 0.15 0.15 0.15 0.15 0.15 0.15 0.15 0.15
0.15 0.15 0.15 0.15 0.15 0.15 0.15 0.15 0.15 0.15
0.15 0.15 0.15 0.15 0.15 0.15 0.15 0.15 0.15 0.15
0.15 0.15 0.15 0.15 0.15 0.15 0.15 0.15 0.15 0.15
0.15 0.15 0.15 0.15 0.15 0.15 0.15 0.15 0.15 0.15
0.15 0.15 0.15 0.15 0.15 0.15 0.15 0.15 0.15 0.15
0.15 0.15 0.15 0.15 0.15 0.15 0.15 0.15 0.15 0.15
0.15 0.15 0.15 0.15 0.15 0.15 0.15 0.15 0.15 0.15
0.15 0.15 0.15 0.15 0.15 0.15 0.15 0.15 0.15 0.15
0.15 0.15 0.15 0.15 0.15 0.15 0.15 0.15 0.15 0.15
0.15 0.15 0.15 0.15 0.15 0.15 0.15 0.15 0.15 0.15
0.15 0.15 0.15 0.15 0.15 0.15 0.15 0.15 0.15 0.15
0.15 0.15 0.15 0.15 0.15 0.15 0.15 0.15 0.15 0.15
0.15 0.15 0.15 0.15 0.15 0.15 0.15 0.15 0.15 0.15
0.15 0.15 0.15 0.15 0.15 0.15 0.15 0.15 0.15 0.15
0.15 0.15 0.15 0.15 0.15 0.15 0.15 0.15 0.15 0.15
0.15 0.15 0.15 0.15 0.15 0.15 0.15 0.15 0.15 0.15
0.15 0.15 0.15 0.15 0.15 0.15 0.15 0.15 0.15 0.15
0.15 0.15 0.15 0.15 0.15 0.15 0.15 0.15 0.15 0.15
0.15 0.15 0.15 0.15 0.15 0.15 0.15 0.15 0.15 0.15
0.15 0.15 0.15 0.15 0.15 0.15 0.15 0.15 0.15 0.15
0.15 0.15 0.15 0.15 0.15 0.15 0.15 0.15 0.15 
XH2Oair 1 840 float
0.220416 0.220416 0.220416 0.220416 0.220416 0.220416 0.220416 0.220416 0.220416 0.220416 0.220416
0.220416 0.220416 0.220416 0.220416 0.220416 0.220416 0.220416 0.220416 0.220416 0.220416
0.220416 0.220416 0.220416 0.220416 0.220416 0.220416 0.220416 0.220416 0.220416 0.220416
0.220416 0.220416 0.220416 0.220416 0.220416 0.220416 0.220416 0.220416 0.220416 0.220416
0.220416 0.220416 0.220416 0.220416 0.220416 0.220416 0.220416 0.220416 0.220416 0.220416
0.220416 0.220416 0.220416 0.220416 0.220416 0.220416 0.220416 0.220416 0.220416 0.220416
0.220416 0.220416 0.220416 0.220416 0.220416 0.220416 0.220416 0.220416 0.220416 0.220416
0.220416 0.220416 0.220416 0.220416 0.220416 0.220416 0.220416 0.220416 0.220416 0.220416
0.220416 0.220416 0.220416 0.220416 0.220416 0.220416 0.220416 0.220416 0.220416 0.220416
0.220416 0.220416 0.220416 0.220416 0.220416 0.220416 0.220416 0.220416 0.220416 0.220416
0.220416 0.220416 0.220416 0.220416 0.220416 0.220416 0.220416 0.220416 0.220416 0.220416
0.220416 0.220416 0.220416 0.220416 0.220416 0.220416 0.220416 0.220416 0.220416 0.220416
0.220416 0.220416 0.220416 0.220416 0.220416 0.220416 0.220416 0.220416 0.220416 0.220416
0.220416 0.220416 0.220416 0.220416 0.220416 0.220416 0.220416 0.220416 0.220416 0.220416
0.220416 0.220416 0.220416 0.220416 0.220416 0.220416 0.220416 0.220416 0.220416 0.220416
0.220416 0.220416 0.220416 0.220416 0.220416 0.220416 0.220416 0.220416 0.220416 0.220416
0.220416 0.220416 0.220416 0.220416 0.220416 0.220416 0.220416 0.220416 0.220416 0.220416
0.220416 0.220416 0.220416 0.220416 0.220416 0.220416 0.220416 0.220416 0.220416 0.220416
0.220416 0.220416 0.220416 0.220416 0.220416 0.220416 0.220416 0.220416 0.220416 0.220416
0.220416 0.220416 0.220416 0.220416 0.220416 0.220416 0.220416 0.220416 0.220416 0.220416
0.220416 0.220416 0.220416 0.220416 0.220416 0.220416 0.220416 0.220416 0.220416 0.220416
0.220416 0.220416 0.220416 0.220416 0.220416 0.220416 0.220416 0.220416 0.220416 0.220416
0.220416 0.220416 0.220416 0.220416 0.220416 0.220416 0.220416 0.220416 0.220416 0.220416
0.220416 0.220416 0.220416 0.220416 0.220416 0.220416 0.220416 0.220416 0.220416 0.220416
0.220416 0.220416 0.220416 0.220416 0.220416 0.220416 0.220416 0.220416 0.220416 0.220416
0.220416 0.220416 0.220416 0.220416 0.220416 0.220416 0.220416 0.220416 0.220416 0.220416
0.220416 0.220416 0.220416 0.220416 0.220416 0.220416 0.220416 0.220416 0.220416 0.220416
0.220416 0.220416 0.220416 0.220416 0.220416 0.220416 0.220416 0.220416 0.220416 0.220416
0.220416 0.220416 0.220416 0.220416 0.220416 0.220416 0.220416 0.220416 0.220416 0.220416
0.220416 0.220416 0.220416 0.220416 0.220416 0.220416 0.220416 0.220416 0.220416 0.220416
0.220416 0.220416 0.220416 0.220416 0.220416 0.220416 0.220416 0.220416 0.220416 0.220416
0.220416 0.220416 0.220416 0.220416 0.220416 0.220416 0.220416 0.220416 0.220416 0.220416
0.220416 0.220416 0.220416 0.220416 0.220416 0.220416 0.220416 0.220416 0.220416 0.220416
0.220416 0.220416 0.220416 0.220416 0.220416 0.220416 0.220416 0.220416 0.220416 0.220416
0.220416 0.220416 0.220416 0.220416 0.220416 0.220416 0.220416 0.220416 0.220416 0.220416
0.220416 0.220416 0.220416 0.220416 0.220416 0.220416 0.220416 0.220416 0.220416 0.220416
0.220416 0.220416 0.220416 0.220416 0.220416 0.220416 0.220416 0.220416 0.220416 0.220416
0.220416 0.220416 0.220416 0.220416 0.220416 0.220416 0.220416 0.220416 0.220416 0.220416
0.220416 0.220416 0.220416 0.220416 0.220416 0.220416 0.220416 0.220416 0.220416 0.220416
0.220416 0.220416 0.220416 0.220416 0.220416 0.220416 0.220416 0.220416 0.220416 0.220416
0.220416 0.220416 0.220416 0.220416 0.220416 0.220416 0.220416 0.220416 0.220416 0.220416
0.220416 0.220416 0.220416 0.220416 0.220416 0.220416 0.220416 0.220416 0.220416 0.220416
0.220416 0.220416 0.220416 0.220416 0.220416 0.220416 0.220416 0.220416 0.220416 0.220416
0.220416 0.220416 0.220416 0.220416 0.220416 0.220416 0.220416 0.220416 0.220416 0.220416
0.220416 0.220416 0.220416 0.220416 0.220416 0.220416 0.220416 0.220416 0.220416 0.220416
0.220416 0.220416 0.220416 0.220416 0.220416 0.220416 0.220416 0.220416 0.220416 0.220416
0.220416 0.220416 0.220416 0.220416 0.220416 0.220416 0.220416 0.220416 0.220416 0.220416
0.220416 0.220416 0.220416 0.220416 0.220416 0.220416 0.220416 0.220416 0.220416 0.220416
0.220416 0.220416 0.220416 0.220416 0.220416 0.220416 0.220416 0.220416 0.220416 0.220416
0.220416 0.220416 0.220416 0.220416 0.220416 0.220416 0.220416 0.220416 0.220416 0.220416
0.220416 0.220416 0.220416 0.220416 0.220416 0.220416 0.220416 0.220416 0.220416 0.220416
0.220416 0.220416 0.220416 0.220416 0.220416 0.220416 0.220416 0.220416 0.220416 0.220416
0.220416 0.220416 0.220416 0.220416 0.220416 0.220416 0.220416 0.220416 0.220416 0.220416
0.220416 0.220416 0.220416 0.220416 0.220416 0.220416 0.220416 0.220416 0.220416 0.220416
0.220416 0.220416 0.220416 0.220416 0.220416 0.220416 0.220416 0.220416 0.220416 0.220416
0.220416 0.220416 0.220416 0.220416 0.220416 0.220416 0.220416 0.220416 0.220416 0.220416
0.220416 0.220416 0.220416 0.220416 0.220416 0.220416 0.220416 0.220416 0.220416 0.220416
0.220416 0.220416 0.220416 0.220416 0.220416 0.220416 0.220416 0.220416 0.220416 0.220416
0.220416 0.220416 0.220416 0.220416 0.220416 0.220416 0.220416 0.220416 0.220416 0.220416
0.220416 0.220416 0.220416 0.220416 0.220416 0.220416 0.220416 0.220416 0.220416 0.220416
0.220416 0.220416 0.220416 0.220416 0.220416 0.220416 0.220416 0.220416 0.220416 0.220416
0.220416 0.220416 0.220416 0.220416 0.220416 0.220416 0.220416 0.220416 0.220416 0.220416
0.220416 0.220416 0.220416 0.220416 0.220416 0.220416 0.220416 0.220416 0.220416 0.220416
0.220416 0.220416 0.220416 0.220416 0.220416 0.220416 0.220416 0.220416 0.220416 0.220416
0.220416 0.220416 0.220416 0.220416 0.220416 0.220417 0.220416 0.220416 0.220416 0.220416
0.220416 0.220416 0.220416 0.220416 0.220416 0.220416 0.220416 0.220416 0.220416 0.220416
0.220416 0.220416 0.220416 0.220416 0.220416 0.220416 0.220416 0.220416 0.220417 0.220416
0.220416 0.220417 0.220417 0.220417 0.220417 0.220417 0.220417 0.220417 0.220416 0.220416
0.220416 0.220417 0.220416 0.220416 0.220417 0.220417 0.220416 0.220416 0.220417 0.220416
0.220416 0.220416 0.220417 0.220417 0.220417 0.220417 0.220417 0.220417 0.220417 0.220417
0.220417 0.220417 0.220417 0.220417 0.220417 0.220417 0.220417 0.220417 0.220417 0.220417
0.220417 0.220417 0.220417 0.220417 0.220417 0.220417 0.220417 0.220417 0.220417 0.220417
0.220417 0.220417 0.220417 0.220417 0.220417 0.220417 0.220417 0.220417 0.220417 0.220419
0.220417 0.220417 0.220417 0.220417 0.220417 0.220417 0.220417 0.220417 0.220417 0.220417
0.220417 0.220417 0.220417 0.220417 0.220417 0.220417 0.220417 0.220417 0.220417 0.220417
0.220417 0.220417 0.220419 0.220417 0.220417 0.22042 0.22042 0.220426 0.220419 0.220419
0.220419 0.22042 0.220418 0.220418 0.220418 0.220419 0.220418 0.220418 0.220419 0.220419
0.220418 0.220418 0.220419 0.220418 0.220418 0.220418 0.22042 0.220419 0.220419 0.220419
0.220426 0.22042 0.22042 0.220432 0.220433 0.220452 0.220429 0.220427 0.220427 0.220433
0.220422 0.220425 0.220426 0.220427 0.220423 0.220423 0.220426 0.220426 0.220423 0.220423
0.220426 0.220426 0.220425 0.220423 0.220433 0.220427 0.220427 0.220429 0.220453 0.220433
0.220432 0.220482 0.220484 0.220549 0.220467 0.220464 0.220461 0.220484 0.220444 0.220454
0.220457 0.220461 0.220445 0.220447 0.220457 0.220457 0.220447 0.220445 0.22046 0.220456
0.220454 0.220444 0.220483 0.220461 0.220463 0.220468 0.22055 0.220482 0.220482 
rho 1 840 float
0.914 0.914 0.914 0.914 0.914 0.914 0.914 0.914 0.914 0.914 0.914
0.914 0.914 0.914 0.914 0.914 0.914 0.914 0.914 0.914 0.914
0.914 0.914 0.914 0.914 0.914 0.914 0.914 0.914 0.914 0.914
0.914 0.914 0.914 0.914 0.914 0.914 0.914 0.914 0.914 0.914
0.914 0.914 0.914 0.914 0.914 0.914 0.914 0.914 0.914 0.914
0.914 0.914 0.914 0.914 0.914 0.914 0.914 0.914 0.914 0.914
0.914 0.914 0.914 0.914 0.914 0.914 0.914 0.914 0.914 0.914
0.914 0.914 0.914 0.914 0.914 0.914 0.914 0.914 0.914 0.914
0.914 0.914 0.914 0.914 0.914 0.914 0.914 0.914 0.914 0.914
0.914 0.914 0.914 0.914 0.914 0.914 0.914 0.914 0.914 0.914
0.914 0.914 0.914 0.914 0.914 0.914 0.914 0.914 0.914 0.914
0.914 0.914 0.914 0.914 0.914 0.914 0.914 0.914 0.914 0.914
0.914 0.914 0.914 0.914 0.914 0.914 0.914 0.914 0.914 0.914
0.914 0.914 0.914 0.914 0.914 0.914 0.914 0.914 0.914 0.914
0.914 0.914 0.914 0.914 0.914 0.914 0.914 0.914 0.914 0.914
0.914 0.914 0.914 0.914 0.914 0.914 0.914 0.914 0.914 0.914
0.914 0.914 0.914 0.914 0.914 0.914 0.914 0.914 0.914 0.914
0.914 0.914 0.914 0.914 0.914 0.914 0.914 0.914 0.914 0.914
0.914 0.914 0.914 0.914 0.914 0.914 0.914 0.914 0.914 0.914
0.914 0.914 0.914 0.914 0.914 0.914 0.914 0.914 0.914 0.914
0.914 0.914 0.914 0.914 0.914 0.914 0.914 0.914 0.914 0.914
0.914 0.914 0.914 0.914 0.914 0.914 0.914 0.914 0.914 0.914
0.914 0.914 0.914 0.914 0.914 0.914 0.914 0.914 0.914 0.914
0.914 0.914 0.914 0.914 0.914 0.914 0.914 0.914 0.914 0.914
0.914 0.914 0.914 0.914 0.914 0.914 0.914 0.914 0.914 0.914
0.914 0.914 0.914 0.914 0.914 0.914 0.914 0.914 0.914 0.914
0.914 0.914 0.914 0.914 0.914 0.914 0.914 0.914 0.914 0.914
0.914 0.914 0.914 0.914 0.914 0.914 0.914 0.914 0.914 0.914
0.914 0.914 0.914 0.914 0.914 0.914 0.914 0.914 0.914 0.914
0.914 0.914 0.914 0.914 0.914 0.914 0.914 0.914 0.914 0.914
0.914 0.914 0.914 0.914 0.914 0.914 0.914 0.914 0.914 0.914
0.914 0.914 0.914 0.914 0.914 0.914 0.914 0.914 0.914 0.914
0.914 0.914 0.914 0.914 0.914 0.914 0.914 0.914 0.914 0.914
0.914 0.914 0.914 0.914 0.914 0.914 0.914 0.914 0.914 0.914
0.914 0.914 0.914 0.914 0.914 0.914 0.914 0.914 0.914 0.914
0.914 0.914 0.914 0.914 0.914 0.914 0.914 0.914 0.914 0.914
0.914 0.914 0.914 0.914 0.914 0.914 0.914 0.914 0.914 0.914
0.914 0.914 0.914 0.914 0.914 0.914 0.914 0.914 0.914 0.914
0.914 0.914 0.914 0.914 0.914 0.914 0.914 0.914 0.914 0.914
0.914 0.914 0.914 0.914 0.914 0.914 0.914 0.914 0.914 0.914
0.914 0.914 0.914 0.914 0.914 0.914 0.914 0.914 0.914 0.914
0.914 0.914 0.914 0.914 0.914 0.914 0.914 0.914 0.914 0.914
0.914 0.914 0.914 0.914 0.914 0.914 0.914 0.914 0.914 0.914
0.914 0.914 0.914 0.914 0.914 0.914 0.914 0.914 0.914 0.914
0.914 0.914 0.914 0.914 0.914 0.914 0.914 0.914 0.914 0.914
0.914 0.914 0.914 0.914 0.914 0.914 0.914 0.914 0.914 0.914
0.914 0.914 0.914 0.914 0.914 0.914 0.914 0.914 0.914 0.914
0.914 0.914 0.914 0.914 0.914 0.914 0.914 0.914 0.914 0.914
0.914 0.914 0.914 0.914 0.914 0.914 0.914 0.914 0.914 0.914
0.914 0.914 0.914 0.914 0.914 0.914 0.914 0.914 0.914 0.914
0.914 0.914 0.914 0.914 0.914 0.914 0.914 0.914 0.914 0.914
0.914 0.914 0.914 0.914 0.914 0.914 0.914 0.914 0.914 0.914
0.914 0.914 0.914 0.914 0.914 0.914 0.914 0.914 0.914 0.914
0.914 0.914 0.914 0.914 0.914 0.914 0.914 0.914 0.914 0.914
0.914 0.914 0.914 0.914 0.914 0.914 0.914 0.914 0.914 0.914
0.914 0.914 0.914 0.914 0.914 0.914 0.914 0.914 0.914 0.914
0.914 0.914 0.914 0.914 0.914 0.914 0.914 0.914 0.914 0.914
0.914 0.914 0.914 0.914 0.914 0.914 0.914 0.914 0.914 0.914
0.914 0.914 0.914 0.914 0.914 0.914 0.914 0.914 0.914 0.914
0.914 0.914 0.914 0.914 0.914 0.914 0.914 0.914 0.914 0.914
0.914 0.914 0.914 0.914 0.914 0.914 0.914 0.914 0.914 0.914
0.914 0.914 0.914 0.914 0.914 0.914 0.914 0.914 0.914 0.914
0.914 0.914 0.914 0.914 0.914 0.914 0.914 0.914 0.914 0.914
0.914 0.914 0.914 0.914 0.914 0.914 0.914 0.914 0.914 0.914
0.914 0.914 0.914 0.914 0.914 0.914 0.914 0.914 0.914 0.914
0.914 0.914 0.914 0.914 0.914 0.914 0.914 0.914 0.914 0.914
0.914 0.914 0.914 0.914 0.914 0.914 0.914 0.914 0.914 0.914
0.914 0.914 0.914 0.914 0.914 0.914 0.914 0.914 0.914 0.914
0.914 0.914 0.914 0.914 0.914 0.914 0.914 0.914 0.914 0.914
0.914 0.914 0.914 0.914 0.914 0.914 0.914 0.914 0.914 0.914
0.914 0.914 0.914 0.914 0.914 0.914 0.914 0.914 0.914 0.914
0.914 0.914 0.914 0.914 0.914 0.914 0.914 0.914 0.914 0.914
0.914 0.914 0.914 0.914 0.914 0.914 0.914 0.914 0.914 0.914
0.914 0.914 0.914 0.914 0.914 0.914 0.914 0.914 0.914 0.914
0.914 0.914 0.914 0.914 0.914 0.914 0.914 0.914 0.914 0.914
0.914 0.914 0.914 0.914 0.914 0.914 0.914 0.914 0.914 0.914
0.914 0.914 0.914 0.914 0.914 0.914 0.914 0.914 0.914 0.914
0.914 0.914 0.914 0.914 0.914 0.914 0.914 0.914 0.914 0.914
0.914 0.914 0.914 0.914 0.914 0.914 0.914 0.914 0.914 0.914
0.914 0.914 0.914 0.914 0.914 0.914 0.914 0.914 0.914 0.914
0.914 0.914 0.914 0.914 0.914 0.914 0.914 0.914 0.914 0.914
0.914 0.914 0.914 0.914 0.914 0.914 0.914 0.914 0.914 0.914
0.914 0.914 0.914 0.914 0.914 0.914 0.914 0.914 0.914 0.914
0.914 0.914 0.914 0.914 0.914 0.914 0.914 0.914 0.914 
diffH2Oair 1 840 float
3.47933e-05 3.47932e-05 3.47931e-05 3.47929e-05 3.47927e-05 3.47928e-05 3.47928e-05 3.47927e-05 3.47925e-05 3.47926e-05 3.47926e-05
3.47925e-05 3.47924e-05 3.47925e-05 3.47925e-05 3.47924e-05 3.47925e-05 3.47926e-05 3.47926e-05 3.47925e-05 3.47927e-05
3.47928e-05 3.47928e-05 3.47927e-05 3.47929e-05 3.47931e-05 3.47933e-05 3.47933e-05 3.47907e-05 3.47907e-05 3.47906e-05
3.47904e-05 3.47903e-05 3.47904e-05 3.47904e-05 3.47903e-05 3.47902e-05 3.47903e-05 3.47903e-05 3.47902e-05 3.47901e-05
3.47902e-05 3.47902e-05 3.47901e-05 3.47902e-05 3.47903e-05 3.47903e-05 3.47902e-05 3.47903e-05 3.47904e-05 3.47904e-05
3.47903e-05 3.47904e-05 3.47906e-05 3.47907e-05 3.47907e-05 3.47899e-05 3.47899e-05 3.47898e-05 3.47897e-05 3.47896e-05
3.47897e-05 3.47897e-05 3.47896e-05 3.47895e-05 3.47896e-05 3.47896e-05 3.47895e-05 3.47895e-05 3.47896e-05 3.47896e-05
3.47894e-05 3.47895e-05 3.47896e-05 3.47896e-05 3.47895e-05 3.47896e-05 3.47897e-05 3.47897e-05 3.47896e-05 3.47897e-05
3.47898e-05 3.47899e-05 3.47899e-05 3.47897e-05 3.47897e-05 3.47896e-05 3.47895e-05 3.47895e-05 3.47896e-05 3.47896e-05
3.47895e-05 3.47894e-05 3.47895e-05 3.47895e-05 3.47894e-05 3.47893e-05 3.47894e-05 3.47894e-05 3.47893e-05 3.47894e-05
3.47895e-05 3.47895e-05 3.47894e-05 3.47895e-05 3.47896e-05 3.47896e-05 3.47895e-05 3.47895e-05 3.47896e-05 3.47897e-05