# vtk DataFile Version 2.0
cgdlSides
ASCII
DATASET POLYDATA
POINTS 2772 float
0.003 0 0 0.0030205 0 0 0.0030205 0 0.001 0.003 0
0.001 0.0030205 0 0.002 0.003 0 0.002 0.0030205 0 0.003
0.003 0 0.003 0.0030205 0 0.004 0.003 0 0.004 0.0030205
0 0.005 0.003 0 0.005 0.0030205 0 0.006 0.003 0
0.006 0.0030205 0 0.007 0.003 0 0.007 0.0030205 0 0.008
0.003 0 0.008 0.0030205 0 0.009 0.003 0 0.009 0.0030205
0 0.01 0.003 0 0.01 0.0030205 0 0.011 0.003 0
0.011 0.0030205 0 0.012 0.003 0 0.012 0.0030205 0 0.013
0.003 0 0.013 0.0030205 0 0.014 0.003 0 0.014 0.0030205
0 0.015 0.003 0 0.015 0.0030205 0 0.016 0.003 0
0.016 0.0030205 0 0.017 0.003 0 0.017 0.0030205 0 0.018
0.003 0 0.018 0.0030205 0 0.019 0.003 0 0.019 0.0030205
0 0.02 0.003 0 0.02 0.0030205 0 0.021 0.003 0
0.021 0.0030205 0 0.022 0.003 0 0.022 0.003041 0 0
0.003041 0 0.001 0.003041 0 0.002 0.003041 0 0.003 0.003041
0 0.004 0.003041 0 0.005 0.003041 0 0.006 0.003041 0
0.007 0.003041 0 0.008 0.003041 0 0.009 0.003041 0 0.01
0.003041 0 0.011 0.003041 0 0.012 0.003041 0 0.013 0.003041
0 0.014 0.003041 0 0.015 0.003041 0 0.016 0.003041 0
0.017 0.003041 0 0.018 0.003041 0 0.019 0.003041 0 0.02
0.003041 0 0.021 0.003041 0 0.022 0.0030615 0 0 0.0030615
0 0.001 0.0030615 0 0.002 0.0030615 0 0.003 0.0030615 0
0.004 0.0030615 0 0.005 0.0030615 0 0.006 0.0030615 0 0.007
0.0030615 0 0.008 0.0030615 0 0.009 0.0030615 0 0.01 0.0030615
0 0.011 0.0030615 0 0.012 0.0030615 0 0.013 0.0030615 0
0.014 0.0030615 0 0.015 0.0030615 0 0.016 0.0030615 0 0.017
0.0030615 0 0.018 0.0030615 0 0.019 0.0030615 0 0.02 0.0030615
0 0.021 0.0030615 0 0.022 0.003082 0 0 0.003082 0
0.001 0.003082 0 0.002 0.003082 0 0.003 0.003082 0 0.004
0.003082 0 0.005 0.003082 0 0.006 0.003082 0 0.007 0.003082
0 0.008 0.003082 0 0.009 0.003082 0 0.01 0.003082 0
0.011 0.003082 0 0.012 0.003082 0 0.013 0.003082 0 0.014
0.003082 0 0.015 0.003082 0 0.016 0.003082 0 0.017 0.003082
0 0.018 0.003082 0 0.019 0.003082 0 0.02 0.003082 0
0.021 0.003082 0 0.022 0.0031025 0 0 0.0031025 0 0.001
0.0031025 0 0.002 0.0031025 0 0.003 0.0031025 0 0.004 0.0031025
0 0.005 0.0031025 0 0.006 0.0031025 0 0.007 0.0031025 0
0.008 0.0031025 0 0.009 0.0031025 0 0.01 0.0031025 0 0.011
0.0031025 0 0.012 0.0031025 0 0.013 0.0031025 0 0.014 0.0031025
0 0.015 0.0031025 0 0.016 0.0031025 0 0.017 0.0031025 0
0.018 0.0031025 0 0.019 0.0031025 0 0.02 0.0031025 0 0.021
0.0031025 0 0.022 0.003123 0 0 0.003123 0 0.001 0.003123
0 0.002 0.003123 0 0.003 0.003123 0 0.004 0.003123 0
0.005 0.003123 0 0.006 0.003123 0 0.007 0.003123 0 0.008
0.003123 0 0.009 0.003123 0 0.01 0.003123 0 0.011 0.003123
0 0.012 0.003123 0 0.013 0.003123 0 0.014 0.003123 0
0.015 0.003123 0 0.016 0.003123 0 0.017 0.003123 0 0.018
0.003123 0 0.019 0.003123 0 0.02 0.003123 0 0.021 0.003123
0 0.022 0.0031435 0 0 0.0031435 0 0.001 0.0031435 0
0.002 0.0031435 0 0.003 0.0031435 0 0.004 0.0031435 0 0.005
0.0031435 0 0.006 0.0031435 0 0.007 0.0031435 0 0.008 0.0031435
0 0.009 0.0031435 0 0.01 0.0031435 0 0.011 0.0031435 0
0.012 0.0031435 0 0.013 0.0031435 0 0.014 0.0031435 0 0.015
0.0031435 0 0.016 0.0031435 0 0.017 0.0031435 0 0.018 0.0031435
0 0.019 0.0031435 0 0.02 0.0031435 0 0.021 0.0031435 0
0.022 0.003164 0 0 0.003164 0 0.001 0.003164 0 0.002
0.003164 0 0.003 0.003164 0 0.004 0.003164 0 0.005 0.003164
0 0.006 0.003164 0 0.007 0.003164 0 0.008 0.003164 0
0.009 0.003164 0 0.01 0.003164 0 0.011 0.003164 0 0.012
0.003164 0 0.013 0.003164 0 0.014 0.003164 0 0.015 0.003164
0 0.016 0.003164 0 0.017 0.003164 0 0.018 0.003164 0
0.019 0.003164 0 0.02 0.003164 0 0.021 0.003164 0 0.022
0.0031845 0 0 0.0031845 0 0.001 0.0031845 0 0.002 0.0031845
0 0.003 0.0031845 0 0.004 0.0031845 0 0.005 0.0031845 0
0.006 0.0031845 0 0.007 0.0031845 0 0.008 0.0031845 0 0.009
0.0031845 0 0.01 0.0031845 0 0.011 0.0031845 0 0.012 0.0031845
0 0.013 0.0031845 0 0.014 0.0031845 0 0.015 0.0031845 0
0.016 0.0031845 0 0.017 0.0031845 0 0.018 0.0031845 0 0.019
0.0031845 0 0.02 0.0031845 0 0.021 0.0031845 0 0.022 0.003205
0 0 0.003205 0 0.001 0.003205 0 0.002 0.003205 0
0.003 0.003205 0 0.004 0.003205 0 0.005 0.003205 0 0.006
0.003205 0 0.007 0.003205 0 0.008 0.003205 0 0.009 0.003205
0 0.01 0.003205 0 0.011 0.003205 0 0.012 0.003205 0
0.013 0.003205 0 0.014 0.003205 0 0.015 0.003205 0 0.016
0.003205 0 0.017 0.003205 0 0.018 0.003205 0 0.019 0.003205
0 0.02 0.003205 0 0.021 0.003205 0 0.022 0.0032255 0
0 0.0032255 0 0.001 0.0032255 0 0.002 0.0032255 0 0.003
0.0032255 0 0.004 0.0032255 0 0.005 0.0032255 0 0.006 0.0032255
0 0.007 0.0032255 0 0.008 0.0032255 0 0.009 0.0032255 0
0.01 0.0032255 0 0.011 0.0032255 0 0.012 0.0032255 0 0.013
0.0032255 0 0.014 0.0032255 0 0.015 0.0032255 0 0.016 0.0032255
0 0.017 0.0032255 0 0.018 0.0032255 0 0.019 0.0032255 0
0.02 0.0032255 0 0.021 0.0032255 0 0.022 0.003246 0 0
0.003246 0 0.001 0.003246 0 0.002 0.003246 0 0.003 0.003246
0 0.004 0.003246 0 0.005 0.003246 0 0.006 0.003246 0
0.007 0.003246 0 0.008 0.003246 0 0.009 0.003246 0 0.01
0.003246 0 0.011 0.003246 0 0.012 0.003246 0 0.013 0.003246
0 0.014 0.003246 0 0.015 0.003246 0 0.016 0.003246 0
0.017 0.003246 0 0.018 0.003246 0 0.019 0.003246 0 0.02
0.003246 0 0.021 0.003246 0 0.022 0.0032665 0 0 0.0032665
0 0.001 0.0032665 0 0.002 0.0032665 0 0.003 0.0032665 0
0.004 0.0032665 0 0.005 0.0032665 0 0.006 0.0032665 0 0.007
0.0032665 0 0.008 0.0032665 0 0.009 0.0032665 0 0.01 0.0032665
0 0.011 0.0032665 0 0.012 0.0032665 0 0.013 0.0032665 0
0.014 0.0032665 0 0.015 0.0032665 0 0.016 0.0032665 0 0.017
0.0032665 0 0.018 0.0032665 0 0.019 0.0032665 0 0.02 0.0032665
0 0.021 0.0032665 0 0.022 0.003287 0 0 0.003287 0
0.001 0.003287 0 0.002 0.003287 0 0.003 0.003287 0 0.004
0.003287 0 0.005 0.003287 0 0.006 0.003287 0 0.007 0.003287
0 0.008 0.003287 0 0.009 0.003287 0 0.01 0.003287 0
0.011 0.003287 0 0.012 0.003287 0 0.013 0.003287 0 0.014
0.003287 0 0.015 0.003287 0 0.016 0.003287 0 0.017 0.003287
0 0.018 0.003287 0 0.019 0.003287 0 0.02 0.003287 0
0.021 0.003287 0 0.022 0.0033075 0 0 0.0033075 0 0.001
0.0033075 0 0.002 0.0033075 0 0.003 0.0033075 0 0.004 0.0033075
0 0.005 0.0033075 0 0.006 0.0033075 0 0.007 0.0033075 0
0.008 0.0033075 0 0.009 0.0033075 0 0.01 0.0033075 0 0.011
0.0033075 0 0.012 0.0033075 0 0.013 0.0033075 0 0.014 0.0033075
0 0.015 0.0033075 0 0.016 0.0033075 0 0.017 0.0033075 0
0.018 0.0033075 0 0.019 0.0033075 0 0.02 0.0033075 0 0.021
0.0033075 0 0.022 0.003328 0 0 0.003328 0 0.001 0.003328
0 0.002 0.003328 0 0.003 0.003328 0 0.004 0.003328 0
0.005 0.003328 0 0.006 0.003328 0 0.007 0.003328 0 0.008
0.003328 0 0.009 0.003328 0 0.01 0.003328 0 0.011 0.003328
0 0.012 0.003328 0 0.013 0.003328 0 0.014 0.003328 0
0.015 0.003328 0 0.016 0.003328 0 0.017 0.003328 0 0.018
0.003328 0 0.019 0.003328 0 0.02 0.003328 0 0.021 0.003328
0 0.022 0.0033485 0 0 0.0033485 0 0.001 0.0033485 0
0.002 0.0033485 0 0.003 0.0033485 0 0.004 0.0033485 0 0.005
0.0033485 0 0.006 0.0033485 0 0.007 0.0033485 0 0.008 0.0033485
0 0.009 0.0033485 0 0.01 0.0033485 0 0.011 0.0033485 0
0.012 0.0033485 0 0.013 0.0033485 0 0.014 0.0033485 0 0.015
0.0033485 0 0.016 0.0033485 0 0.017 0.0033485 0 0.018 0.0033485
0 0.019 0.0033485 0 0.02 0.0033485 0 0.021 0.0033485 0
0.022 0.003369 0 0 0.003369 0 0.001 0.003369 0 0.002
0.003369 0 0.003 0.003369 0 0.004 0.003369 0 0.005 0.003369
0 0.006 0.003369 0 0.007 0.003369 0 0.008 0.003369 0
0.009 0.003369 0 0.01 0.003369 0 0.011 0.003369 0 0.012
0.003369 0 0.013 0.003369 0 0.014 0.003369 0 0.015 0.003369
0 0.016 0.003369 0 0.017 0.003369 0 0.018 0.003369 0
0.019 0.003369 0 0.02 0.003369 0 0.021 0.003369 0 0.022
0.0033895 0 0 0.0033895 0 0.001 0.0033895 0 0.002 0.0033895
0 0.003 0.0033895 0 0.004 0.0033895 0 0.005 0.0033895 0
0.006 0.0033895 0 0.007 0.0033895 0 0.008 0.0033895 0 0.009
0.0033895 0 0.01 0.0033895 0 0.011 0.0033895 0 0.012 0.0033895
0 0.013 0.0033895 0 0.014 0.0033895 0 0.015 0.0033895 0
0.016 0.0033895 0 0.017 0.0033895 0 0.018 0.0033895 0 0.019
0.0033895 0 0.02 0.0033895 0 0.021 0.0033895 0 0.022 0.00341
0 0 0.00341 0 0.001 0.00341 0 0.002 0.00341 0
0.003 0.00341 0 0.004 0.00341 0 0.005 0.00341 0 0.006
0.00341 0 0.007 0.00341 0 0.008 0.00341 0 0.009 0.00341
0 0.01 0.00341 0 0.011 0.00341 0 0.012 0.00341 0
0.013 0.00341 0 0.014 0.00341 0 0.015 0.00341 0 0.016
0.00341 0 0.017 0.00341 0 0.018 0.00341 0 0.019 0.00341
0 0.02 0.00341 0 0.021 0.00341 0 0.022 0.003 0.022
0 0.003 0.022 0.001 0.0030205 0.022 0.001 0.0030205 0.022 0
0.003 0.022 0.002 0.0030205 0.022 0.002 0.003 0.022 0.003 0.0030205
0.022 0.003 0.003 0.022 0.004 0.0030205 0.022 0.004 0.003 0.022
0.005 0.0030205 0.022 0.005 0.003 0.022 0.006 0.0030205 0.022 0.006
0.003 0.022 0.007 0.0030205 0.022 0.007 0.003 0.022 0.008 0.0030205
0.022 0.008 0.003 0.022 0.009 0.0030205 0.022 0.009 0.003 0.022
0.01 0.0030205 0.022 0.01 0.003 0.022 0.011 0.0030205 0.022 0.011
0.003 0.022 0.012 0.0030205 0.022 0.012 0.003 0.022 0.013 0.0030205
0.022 0.013 0.003 0.022 0.014 0.0030205 0.022 0.014 0.003 0.022
0.015 0.0030205 0.022 0.015 0.003 0.022 0.016 0.0030205 0.022 0.016
0.003 0.022 0.017 0.0030205 0.022 0.017 0.003 0.022 0.018 0.0030205
0.022 0.018 0.003 0.022 0.019 0.0030205 0.022 0.019 0.003 0.022
0.02 0.0030205 0.022 0.02 0.003 0.022 0.021 0.0030205 0.022 0.021
0.003 0.022 0.022 0.0030205 0.022 0.022 0.003041 0.022 0.001 0.003041
0.022 0 0.003041 0.022 0.002 0.003041 0.022 0.003 0.003041 0.022
0.004 0.003041 0.022 0.005 0.003041 0.022 0.006 0.003041 0.022 0.007
0.003041 0.022 0.008 0.003041 0.022 0.009 0.003041 0.022 0.01 0.003041
0.022 0.011 0.003041 0.022 0.012 0.003041 0.022 0.013 0.003041 0.022
0.014 0.003041 0.022 0.015 0.003041 0.022 0.016 0.003041 0.022 0.017
0.003041 0.022 0.018 0.003041 0.022 0.019 0.003041 0.022 0.02 0.003041
0.022 0.021 0.003041 0.022 0.022 0.0030615 0.022 0.001 0.0030615 0.022
0 0.0030615 0.022 0.002 0.0030615 0.022 0.003 0.0030615 0.022 0.004
0.0030615 0.022 0.005 0.0030615 0.022 0.006 0.0030615 0.022 0.007 0.0030615
0.022 0.008 0.0030615 0.022 0.009 0.0030615 0.022 0.01 0.0030615 0.022
[...]
CELL_DATA 2640
FIELD attributes 16
patchID 1 2640 float
2 2 2 2 2 2 2 2 2 2 2
2 2 2 2 2 2 2 2 2 2
2 2 2 2 2 2 2 2 2 2
2 2 2 2 2 2 2 2 2 2
2 2 2 2 2 2 2 2 2 2
2 2 2 2 2 2 2 2 2 2
2 2 2 2 2 2 2 2 2 2
2 2 2 2 2 2 2 2 2 2
2 2 2 2 2 2 2 2 2 2
2 2 2 2 2 2 2 2 2 2
2 2 2 2 2 2 2 2 2 2
2 2 2 2 2 2 2 2 2 2
2 2 2 2 2 2 2 2 2 2
2 2 2 2 2 2 2 2 2 2
2 2 2 2 2 2 2 2 2 2
2 2 2 2 2 2 2 2 2 2
2 2 2 2 2 2 2 2 2 2
2 2 2 2 2 2 2 2 2 2
2 2 2 2 2 2 2 2 2 2
2 2 2 2 2 2 2 2 2 2
2 2 2 2 2 2 2 2 2 2
2 2 2 2 2 2 2 2 2 2
2 2 2 2 2 2 2 2 2 2
2 2 2 2 2 2 2 2 2 2
2 2 2 2 2 2 2 2 2 2
2 2 2 2 2 2 2 2 2 2
2 2 2 2 2 2 2 2 2 2
2 2 2 2 2 2 2 2 2 2
2 2 2 2 2 2 2 2 2 2
2 2 2 2 2 2 2 2 2 2
2 2 2 2 2 2 2 2 2 2
2 2 2 2 2 2 2 2 2 2
2 2 2 2 2 2 2 2 2 2
2 2 2 2 2 2 2 2 2 2
2 2 2 2 2 2 2 2 2 2
2 2 2 2 2 2 2 2 2 2
2 2 2 2 2 2 2 2 2 2
2 2 2 2 2 2 2 2 2 2
2 2 2 2 2 2 2 2 2 2
2 2 2 2 2 2 2 2 2 2
2 2 2 2 2 2 2 2 2 2
2 2 2 2 2 2 2 2 2 2
2 2 2 2 2 2 2 2 2 2
2 2 2 2 2 2 2 2 2 2
2 2 2 2 2 2 2 2 2 2
2 2 2 2 2 2 2 2 2 2
2 2 2 2 2 2 2 2 2 2
2 2 2 2 2 2 2 2 2 2
2 2 2 2 2 2 2 2 2 2
2 2 2 2 2 2 2 2 2 2
2 2 2 2 2 2 2 2 2 2
2 2 2 2 2 2 2 2 2 2
2 2 2 2 2 2 2 2 2 2
2 2 2 2 2 2 2 2 2 2
2 2 2 2 2 2 2 2 2 2
2 2 2 2 2 2 2 2 2 2
2 2 2 2 2 2 2 2 2 2
2 2 2 2 2 2 2 2 2 2
2 2 2 2 2 2 2 2 2 2
2 2 2 2 2 2 2 2 2 2
2 2 2 2 2 2 2 2 2 2
2 2 2 2 2 2 2 2 2 2
2 2 2 2 2 2 2 2 2 2
2 2 2 2 2 2 2 2 2 2
2 2 2 2 2 2 2 2 2 2
2 2 2 2 2 2 2 2 2 2
2 2 2 2 2 2 2 2 2 2
2 2 2 2 2 2 2 2 2 2
2 2 2 2 2 2 2 2 2 2
2 2 2 2 2 2 2 2 2 2
2 2 2 2 2 2 2 2 2 2
2 2 2 2 2 2 2 2 2 2
2 2 2 2 2 2 2 2 2 2
2 2 2 2 2 2 2 2 2 2
2 2 2 2 2 2 2 2 2 2
2 2 2 2 2 2 2 2 2 2
2 2 2 2 2 2 2 2 2 2
2 2 2 2 2 2 2 2 2 2
2 2 2 2 2 2 2 2 2 2
2 2 2 2 2 2 2 2 2 2
2 2 2 2 2 2 2 2 2 2
2 2 2 2 2 2 2 2 2 2
2 2 2 2 2 2 2 2 2 2
2 2 2 2 2 2 2 2 2 2
2 2 2 2 2 2 2 2 2 2
2 2 2 2 2 2 2 2 2 2
2 2 2 2 2 2 2 2 2 2
2 2 2 2 2 2 2 2 2 2
2 2 2 2 2 2 2 2 2 2
2 2 2 2 2 2 2 2 2 2
2 2 2 2 2 2 2 2 2 2
2 2 2 2 2 2 2 2 2 2
2 2 2 2 2 2 2 2 2 2
2 2 2 2 2 2 2 2 2 2
2 2 2 2 2 2 2 2 2 2
2 2 2 2 2 2 2 2 2 2
2 2 2 2 2 2 2 2 2 2
2 2 2 2 2 2 2 2 2 2
2 2 2 2 2 2 2 2 2 2
2 2 2 2 2 2 2 2 2 2
2 2 2 2 2 2 2 2 2 2
2 2 2 2 2 2 2 2 2 2
2 2 2 2 2 2 2 2 2 2
2 2 2 2 2 2 2 2 2 2
2 2 2 2 2 2 2 2 2 2
2 2 2 2 2 2 2 2 2 2
2 2 2 2 2 2 2 2 2 2
2 2 2 2 2 2 2 2 2 2
2 2 2 2 2 2 2 2 2 2
2 2 2 2 2 2 2 2 2 2
2 2 2 2 2 2 2 2 2 2
2 2 2 2 2 2 2 2 2 2
2 2 2 2 2 2 2 2 2 2
2 2 2 2 2 2 2 2 2 2
2 2 2 2 2 2 2 2 2 2
2 2 2 2 2 2 2 2 2 2
2 2 2 2 2 2 2 2 2 2
2 2 2 2 2 2 2 2 2 2
2 2 2 2 2 2 2 2 2 2
2 2 2 2 2 2 2 2 2 2
2 2 2 2 2 2 2 2 2 2
2 2 2 2 2 2 2 2 2 2
2 2 2 2 2 2 2 2 2 2
2 2 2 2 2 2 2 2 2 2
2 2 2 2 2 2 2 2 2 2
2 2 2 2 2 2 2 2 2 2
2 2 2 2 2 2 2 2 2 2
2 2 2 2 2 2 2 2 2 2
2 2 2 2 2 2 2 2 2 2
2 2 2 2 2 2 2 2 2 2
2 2 2 2 2 2 2 2 2 2
2 2 2 2 2 2 2 2 2 2
2 2 2 2 2 2 2 2 2 2
2 2 2 2 2 2 2 2 2 2
2 2 2 2 2 2 2 2 2 2
2 2 2 2 2 2 2 2 2 2
2 2 2 2 2 2 2 2 2 2
2 2 2 2 2 2 2 2 2 2
2 2 2 2 2 2 2 2 2 2
2 2 2 2 2 2 2 2 2 2
2 2 2 2 2 2 2 2 2 2
2 2 2 2 2 2 2 2 2 2
2 2 2 2 2 2 2 2 2 2
2 2 2 2 2 2 2 2 2 2
2 2 2 2 2 2 2 2 2 2
2 2 2 2 2 2 2 2 2 2
2 2 2 2 2 2 2 2 2 2
2 2 2 2 2 2 2 2 2 2
2 2 2 2 2 2 2 2 2 2
2 2 2 2 2 2 2 2 2 2
2 2 2 2 2 2 2 2 2 2
2 2 2 2 2 2 2 2 2 2
2 2 2 2 2 2 2 2 2 2
2 2 2 2 2 2 2 2 2 2
2 2 2 2 2 2 2 2 2 2
2 2 2 2 2 2 2 2 2 2
2 2 2 2 2 2 2 2 2 2
2 2 2 2 2 2 2 2 2 2
2 2 2 2 2 2 2 2 2 2
2 2 2 2 2 2 2 2 2 2
2 2 2 2 2 2 2 2 2 2
2 2 2 2 2 2 2 2 2 2
2 2 2 2 2 2 2 2 2 2
2 2 2 2 2 2 2 2 2 2
2 2 2 2 2 2 2 2 2 2
2 2 2 2 2 2 2 2 2 2
2 2 2 2 2 2 2 2 2 2
2 2 2 2 2 2 2 2 2 2
2 2 2 2 2 2 2 2 2 2
2 2 2 2 2 2 2 2 2 2
2 2 2 2 2 2 2 2 2 2
2 2 2 2 2 2 2 2 2 2
2 2 2 2 2 2 2 2 2 2
2 2 2 2 2 2 2 2 2 2
2 2 2 2 2 2 2 2 2 2
2 2 2 2 2 2 2 2 2 2
2 2 2 2 2 2 2 2 2 2
2 2 2 2 2 2 2 2 2 2
2 2 2 2 2 2 2 2 2 2
2 2 2 2 2 2 2 2 2 2
2 2 2 2 2 2 2 2 2 2
2 2 2 2 2 2 2 2 2 2
2 2 2 2 2 2 2 2 2 2
2 2 2 2 2 2 2 2 2 2
2 2 2 2 2 2 2 2 2 2
2 2 2 2 2 2 2 2 2 2
2 2 2 2 2 2 2 2 2 2
2 2 2 2 2 2 2 2 2 2
2 2 2 2 2 2 2 2 2 2
2 2 2 2 2 2 2 2 2 2
2 2 2 2 2 2 2 2 2 2
2 2 2 2 2 2 2 2 2 2
2 2 2 2 2 2 2 2 2 2
2 2 2 2 2 2 2 2 2 2
2 2 2 2 2 2 2 2 2 2
2 2 2 2 2 2 2 2 2 2
2 2 2 2 2 2 2 2 2 2
2 2 2 2 2 2 2 2 2 2
2 2 2 2 2 2 2 2 2 2
2 2 2 2 2 2 2 2 2 2
2 2 2 2 2 2 2 2 2 2
2 2 2 2 2 2 2 2 2 2
2 2 2 2 2 2 2 2 2 2
2 2 2 2 2 2 2 2 2 2
2 2 2 2 2 2 2 2 2 2
2 2 2 2 2 2 2 2 2 2
2 2 2 2 2 2 2 2 2 2
2 2 2 2 2 2 2 2 2 2
2 2 2 2 2 2 2 2 2 2
2 2 2 2 2 2 2 2 2 2
2 2 2 2 2 2 2 2 2 2
2 2 2 2 2 2 2 2 2 2
2 2 2 2 2 2 2 2 2 2
2 2 2 2 2 2 2 2 2 2
2 2 2 2 2 2 2 2 2 2
2 2 2 2 2 2 2 2 2 2
2 2 2 2 2 2 2 2 2 2
2 2 2 2 2 2 2 2 2 2
2 2 2 2 2 2 2 2 2 2
2 2 2 2 2 2 2 2 2 2
2 2 2 2 2 2 2 2 2 2
2 2 2 2 2 2 2 2 2 2
2 2 2 2 2 2 2 2 2 2
2 2 2 2 2 2 2 2 2 2
2 2 2 2 2 2 2 2 2 2
2 2 2 2 2 2 2 2 2 2
2 2 2 2 2 2 2 2 2 2
2 2 2 2 2 2 2 2 2 2
2 2 2 2 2 2 2 2 2 2
2 2 2 2 2 2 2 2 2 2
2 2 2 2 2 2 2 2 2 2
2 2 2 2 2 2 2 2 2 2
2 2 2 2 2 2 2 2 2 2
2 2 2 2 2 2 2 2 2 2
2 2 2 2 2 2 2 2 2 2
2 2 2 2 2 2 2 2 2 2
2 2 2 2 2 2 2 2 2 2
2 2 2 2 2 2 2 2 2 2
2 2 2 2 2 2 2 2 2 2
2 2 2 2 2 2 2 2 2 2
2 2 2 2 2 2 2 2 2 2
2 2 2 2 2 2 2 2 2 2
2 2 2 2 2 2 2 2 2 2
2 2 2 2 2 2 2 2 2 2
2 2 2 2 2 2 2 2 2 2
2 2 2 2 2 2 2 2 2 2
2 2 2 2 2 2 2 2 2 2
2 2 2 2 2 2 2 2 2 2
2 2 2 2 2 2 2 2 2 2
2 2 2 2 2 2 2 2 2 2
2 2 2 2 2 2 2 2 2 2
2 2 2 2 2 2 2 2 2 2
2 2 2 2 2 2 2 2 2 2
2 2 2 2 2 2 2 2 2 2
2 2 2 2 2 2 2 2 2 2
2 2 2 2 2 2 2 2 2 2
2 2 2 2 2 2 2 2 2 2
2 2 2 2 2 2 2 2 2 2
2 2 2 2 2 2 2 2 2 2
2 2 2 2 2 2 2 2 2 2
2 2 2 2 2 2 2 2 2 2
2 2 2 2 2 2 2 2 2 2
2 2 2 2 2 2 2 2 2 2
2 2 2 2 2 2 2 2 2 
YH2Oair 1 2640 float
0.150384 0.150316 0.150275 0.150219 0.150254 0.150278 0.150307 0.150342 0.150385 0.150435 0.150492
0.150555 0.150621 0.150691 0.150762 0.150839 0.150921 0.151011 0.15111 0.151222 0.151366
0.151555 0.150385 0.150317 0.150277 0.150219 0.150255 0.150278 0.150307 0.150343 0.150386
0.150436 0.150493 0.150556 0.150623 0.150692 0.150764 0.15084 0.150922 0.151012 0.151111
0.151223 0.151367 0.151556 0.150387 0.150321 0.150282 0.15022 0.150255 0.150279 0.150309
0.150345 0.150388 0.150439 0.150497 0.15056 0.150627 0.150696 0.150768 0.150844 0.150927
0.151017 0.151116 0.151228 0.151371 0.15156 0.150394 0.150329 0.150291 0.150222 0.150256
0.150281 0.150312 0.150349 0.150394 0.150446 0.150504 0.150568 0.150635 0.150705 0.150777
0.150853 0.150936 0.151026 0.151125 0.151237 0.15138 0.151569 0.150404 0.150342 0.150304
0.150227 0.150257 0.150284 0.150317 0.150356 0.150403 0.150457 0.150516 0.150581 0.150649
0.150719 0.150791 0.150868 0.150951 0.151041 0.15114 0.151251 0.151394 0.151583 0.150421
0.150361 0.150321 0.150236 0.15026 0.150289 0.150325 0.150367 0.150416 0.150473 0.150534
0.1506 0.150669 0.15074 0.150813 0.15089 0.150973 0.151063 0.151162 0.151273 0.151415
0.151604 0.150443 0.150387 0.150342 0.150249 0.150267 0.150297 0.150336 0.150382 0.150435
0.150495 0.150559 0.150626 0.150696 0.150768 0.150842 0.150919 0.151003 0.151093 0.151192
0.151303 0.151445 0.151632 0.150472 0.15042 0.150366 0.150265 0.150279 0.150311 0.150352
0.150402 0.15046 0.150523 0.150591 0.150661 0.150732 0.150806 0.15088 0.150958 0.151042
0.151132 0.151232 0.151343 0.151484 0.151668 0.150508 0.15046 0.150395 0.150286 0.150295
0.150331 0.150376 0.15043 0.150493 0.150561 0.150632 0.150704 0.150778 0.150852 0.150927
0.151006 0.15109 0.151182 0.151281 0.151392 0.151533 0.151713 0.15055 0.150507 0.150426
0.15031 0.150318 0.150358 0.150407 0.150467 0.150534 0.150607 0.150682 0.150758 0.150833
0.150909 0.150985 0.151065 0.151149 0.151241 0.15134 0.151452 0.151592 0.151767 0.150599
0.15056 0.150462 0.15034 0.150349 0.150394 0.150449 0.150514 0.150587 0.150664 0.150743
0.150821 0.150898 0.150976 0.151053 0.151133 0.151219 0.151311 0.15141 0.151522 0.151661
0.15183 0.150657 0.15062 0.150502 0.150376 0.150389 0.150442 0.150503 0.150573 0.150651
0.150733 0.150815 0.150896 0.150974 0.151053 0.151131 0.151213 0.151298 0.151391 0.151491
0.151603 0.151741 0.151905 0.150723 0.150687 0.150549 0.150421 0.150441 0.150502 0.15057
0.150645 0.150727 0.150813 0.150898 0.150981 0.151061 0.151141 0.15122 0.151302 0.151388
0.151482 0.151582 0.151694 0.151831 0.151989 0.150799 0.150761 0.150605 0.150476 0.150505
0.150577 0.15065 0.15073 0.150816 0.150904 0.150992 0.151077 0.151159 0.15124 0.15132
0.151402 0.151489 0.151582 0.151682 0.151795 0.151932 0.152084 0.150886 0.150843 0.150671
0.150545 0.150584 0.150666 0.150745 0.150829 0.150917 0.151007 0.151096 0.151183 0.151266
0.151348 0.151429 0.151512 0.151599 0.151692 0.151793 0.151906 0.152042 0.152188 0.150986
0.150936 0.150751 0.150631 0.150678 0.15077 0.150853 0.150939 0.151029 0.151121 0.151211
0.151299 0.151383 0.151465 0.151546 0.15163 0.151717 0.151811 0.151912 0.152025 0.152161
0.152302 0.151099 0.15104 0.150847 0.150734 0.150788 0.150887 0.150973 0.151061 0.151151
0.151244 0.151335 0.151423 0.151508 0.151591 0.151672 0.151756 0.151843 0.151937 0.152038
0.152152 0.152288 0.152426 0.151225 0.151156 0.150959 0.150853 0.150913 0.151016 0.151103
0.151192 0.151282 0.151375 0.151467 0.151555 0.151641 0.151724 0.151805 0.151889 0.151976
0.15207 0.152171 0.152285 0.152421 0.152557 0.151361 0.151285 0.151087 0.150986 0.151049
0.151155 0.151241 0.151329 0.15142 0.151513 0.151605 0.151693 0.151779 0.151861 0.151943
0.152027 0.152114 0.152208 0.152309 0.152423 0.152559 0.152694 0.151504 0.151424 0.151227
0.151129 0.151192 0.151298 0.151384 0.151472 0.151562 0.151655 0.151747 0.151835 0.15192
0.152003 0.152084 0.152169 0.152255 0.15235 0.15245 0.152564 0.152701 0.152835 0.150384
0.150316 0.150275 0.150219 0.150254 0.150278 0.150307 0.150342 0.150385 0.150435 0.150492
0.150554 0.150621 0.15069 0.150762 0.150838 0.15092 0.15101 0.15111 0.151221 0.151365
0.151553 0.150385 0.150317 0.150277 0.150219 0.150254 0.150278 0.150307 0.150343 0.150386
0.150436 0.150493 0.150556 0.150622 0.150692 0.150763 0.15084 0.150922 0.151012 0.151111
0.151223 0.151366 0.151555 0.150387 0.150321 0.150282 0.15022 0.150255 0.150279 0.150309
0.150345 0.150388 0.150439 0.150497 0.150559 0.150626 0.150696 0.150768 0.150844 0.150926
0.151016 0.151115 0.151227 0.15137 0.151559 0.150393 0.150329 0.150291 0.150222 0.150255
0.150281 0.150312 0.150349 0.150394 0.150446 0.150504 0.150567 0.150635 0.150704 0.150776
0.150853 0.150935 0.151025 0.151124 0.151236 0.151378 0.151567 0.150404 0.150342 0.150304
0.150227 0.150257 0.150283 0.150317 0.150356 0.150403 0.150456 0.150516 0.15058 0.150648
0.150718 0.150791 0.150868 0.15095 0.15104 0.151139 0.15125 0.151393 0.151581 0.150421
0.150361 0.150321 0.150236 0.15026 0.150288 0.150324 0.150367 0.150416 0.150472 0.150534
0.150599 0.150668 0.150739 0.150812 0.150889 0.150972 0.151062 0.151161 0.151272 0.151414
0.151602 0.150443 0.150387 0.150342 0.150249 0.150267 0.150297 0.150336 0.150382 0.150435
0.150494 0.150558 0.150626 0.150696 0.150768 0.150841 0.150919 0.151002 0.151093 0.151192
0.151303 0.151444 0.151631 0.150472 0.15042 0.150366 0.150265 0.150278 0.150311 0.150352
0.150402 0.15046 0.150523 0.150591 0.15066 0.150732 0.150805 0.15088 0.150958 0.151041
0.151132 0.151231 0.151342 0.151483 0.151667 0.150508 0.15046 0.150394 0.150285 0.150295
0.15033 0.150376 0.15043 0.150492 0.15056 0.150632 0.150704 0.150777 0.150852 0.150927
0.151006 0.15109 0.151181 0.15128 0.151391 0.151532 0.151711 0.15055 0.150507 0.150426
0.15031 0.150318 0.150358 0.150407 0.150467 0.150534 0.150607 0.150682 0.150757 0.150832
0.150908 0.150984 0.151064 0.151149 0.15124 0.15134 0.151451 0.151591 0.151765 0.150599
0.15056 0.150462 0.15034 0.150349 0.150394 0.150449 0.150514 0.150587 0.150664 0.150743
0.150821 0.150898 0.150975 0.151053 0.151133 0.151218 0.15131 0.15141 0.151521 0.15166
0.151829 0.150656 0.15062 0.150502 0.150376 0.150389 0.150442 0.150503 0.150573 0.150651
0.150732 0.150815 0.150895 0.150974 0.151053 0.151131 0.151212 0.151298 0.15139 0.15149
0.151602 0.15174 0.151903 0.150722 0.150686 0.150549 0.150421 0.15044 0.150502 0.15057
0.150645 0.150727 0.150812 0.150897 0.15098 0.151061 0.151141 0.15122 0.151302 0.151388
0.151481 0.151581 0.151693 0.15183 0.151988 0.150798 0.15076 0.150605 0.150476 0.150505
0.150576 0.15065 0.15073 0.150816 0.150904 0.150991 0.151076 0.151158 0.151239 0.151319
0.151402 0.151488 0.151582 0.151682 0.151795 0.151931 0.152082 0.150886 0.150843 0.150671
0.150545 0.150584 0.150665 0.150744 0.150828 0.150917 0.151007 0.151096 0.151182 0.151266
0.151347 0.151428 0.151511 0.151598 0.151692 0.151792 0.151906 0.152041 0.152187 0.150986
0.150936 0.150751 0.150631 0.150678 0.150769 0.150852 0.150939 0.151029 0.151121 0.151211
0.151298 0.151383 0.151465 0.151546 0.151629 0.151716 0.15181 0.151911 0.152025 0.15216
0.152301 0.151099 0.151039 0.150846 0.150734 0.150789 0.150886 0.150972 0.151061 0.151151
0.151244 0.151335 0.151423 0.151508 0.15159 0.151672 0.151755 0.151843 0.151937 0.152037
0.152152 0.152287 0.152424 0.151224 0.151156 0.150958 0.150853 0.150913 0.151015 0.151103
0.151191 0.151282 0.151376 0.151466 0.151555 0.15164 0.151723 0.151805 0.151888 0.151975
0.152069 0.15217 0.152285 0.15242 0.152555 0.15136 0.151284 0.151087 0.150986 0.151049
0.151153 0.151241 0.151329 0.15142 0.151514 0.151604 0.151692 0.151778 0.151861 0.151943
0.152026 0.152113 0.152207 0.152308 0.152423 0.152558 0.152692 0.151503 0.151424 0.151227
0.151129 0.151193 0.151297 0.151383 0.151471 0.151562 0.151656 0.151746 0.151834 0.15192
0.152002 0.152085 0.152167 0.152254 0.152349 0.152449 0.152564 0.152699 0.152833 0.150384
0.150477 0.150176 0.150178 0.150317 0.150137 0.150586 0.150562 0.150135 0.150124 0.150176
0.150081 0.150487 0.15053 0.15011 0.150113 0.150122 0.150085 0.150484 0.150492 0.150091
0.150114 0.150113 0.150091 0.150492 0.150483 0.150085 0.15012 0.150112 0.15011 0.150532
0.150488 0.150081 0.150174 0.150124 0.150134 0.150562 0.150587 0.150138 0.150318 0.150175
0.150177 0.150477 0.150384 0.150385 0.150479 0.150322 0.15034 0.150515 0.150266 0.150587
0.150564 0.150267 0.150254 0.150328 0.150173 0.150489 0.150532 0.150223 0.150232 0.150245
0.15018 0.150485 0.150494 0.15019 0.150233 0.150231 0.150191 0.150494 0.150485 0.15018
0.150242 0.15023 0.150224 0.150534 0.15049 0.150173 0.150326 0.150254 0.150265 0.150563
0.150588 0.150268 0.150516 0.150336 0.150323 0.150479 0.150385 0.150387 0.150486 0.150471
0.150524 0.150684 0.150424 0.150592 0.150569 0.150429 0.150426 0.15049 0.1503 0.150494
0.150538 0.150368 0.15039 0.150405 0.150309 0.150491 0.150499 0.150322 0.150389 0.150387
0.150323 0.150499 0.15049 0.150308 0.150401 0.150388 0.150369 0.150539 0.150495 0.1503
0.150488 0.150426 0.150426 0.150569 0.150593 0.150426 0.150684 0.15052 0.150471 0.150486
0.150387 0.150394 0.150497 0.150584 0.150678 0.150819 0.150578 0.1506 0.150579 0.150578
0.150592 0.150628 0.150446 0.150504 0.150548 0.150514 0.150544 0.150551 0.150453 0.150501
0.150509 0.150467 0.150538 0.150536 0.150467 0.150509 0.1505 0.150452 0.150547 0.150542
0.150515 0.150549 0.150505 0.150447 0.150626 0.150592 0.150576 0.150579 0.150601 0.15058
0.150819 0.150675 0.150585 0.150497 0.150393 0.150404 0.150514 0.15067 0.150801 0.150923
0.150707 0.150612 0.150595 0.150694 0.150727 0.150737 0.150575 0.150518 0.150563 0.150632
0.15067 0.150671 0.150576 0.150516 0.150523 0.150587 0.15066 0.150659 0.150588 0.150524
0.150515 0.150575 0.150668 0.150669 0.150633 0.150564 0.150519 0.150576 0.150736 0.150727
0.150692 0.150594 0.150613 0.150708 0.150923 0.150798 0.15067 0.150514 0.150404 0.150421
0.150537 0.150737 0.150897 0.151001 0.150811 0.150628 0.150615 0.150784 0.15083 0.15082
0.150681 0.150538 0.150582 0.150725 0.150768 0.150764 0.150676 0.150536 0.150542 0.150684
0.150754 0.150754 0.150684 0.150543 0.150535 0.150674 0.150761 0.150767 0.150727 0.150583
0.150539 0.150682 0.15082 0.150831 0.150782 0.150615 0.150629 0.150813 0.151001 0.150895
0.150737 0.150536 0.150421 0.150443 0.150565 0.150793 0.150973 0.15106 0.150898 0.150649
0.150641 0.150853 0.150908 0.150882 0.150767 0.150562 0.150605 0.1508 0.150841 0.150834
0.150756 0.15056 0.150566 0.150761 0.150825 0.150825 0.150762 0.150566 0.150559 0.150754
0.150831 0.15084 0.150801 0.150607 0.150563 0.150768 0.150883 0.150908 0.150852 0.150641
0.15065 0.150898 0.151059 0.150972 0.150793 0.150565 0.150443 0.150472 0.150598 0.150843
0.151036 0.151103 0.15097 0.150675 0.150672 0.15091 0.150964 0.150927 0.150838 0.15059
0.150633 0.15086 0.150894 0.150886 0.150822 0.150589 0.150593 0.150825 0.150876 0.150877
0.150825 0.150594 0.150588 0.15082 0.150882 0.150893 0.150862 0.150634 0.150591 0.15084
0.150928 0.150965 0.150909 0.150671 0.150676 0.150971 0.151103 0.151035 0.150843 0.150598
0.150472 0.150508 0.150637 0.15089 0.15109 0.151136 0.151032 0.150705 0.150707 0.150958
0.151006 0.150959 0.150898 0.150624 0.150664 0.150911 0.150933 0.150923 0.150877 0.150621
0.150625 0.150878 0.150913 0.150915 0.150879 0.150626 0.15062 0.150875 0.150919 0.150932
0.150913 0.150666 0.150625 0.150899 0.150962 0.151007 0.150957 0.150707 0.150706 0.151032
0.151136 0.151089 0.15089 0.150636 0.150508 0.15055 0.150679 0.150935 0.151137 0.151161
0.151086 0.150742 0.150748 0.151 0.151036 0.150982 0.150949 0.150662 0.1507 0.150955
0.15096 0.15095 0.150924 0.150659 0.150661 0.150923 0.15094 0.150942 0.150924 0.150662
0.150658 0.150922 0.150946 0.150959 0.150957 0.150702 0.150663 0.150951 0.150985 0.151037
0.150999 0.150747 0.150742 0.151087 0.15116 0.151136 0.150935 0.150679 0.15055 0.150599
0.150727 0.15098 0.15118 0.151179 0.151135 0.150784 0.150794 0.151037 0.151058 0.150999
0.150994 0.150706 0.150742 0.150993 0.15098 0.15097 0.150964 0.150702 0.150703 0.150963
0.150959 0.150961 0.150963 0.150704 0.150701 0.150963 0.150965 0.150979 0.150995 0.150743
0.150707 0.150995 0.151002 0.15106 0.151037 0.150793 0.150785 0.151135 0.151178 0.151178
0.15098 0.150727 0.150599 0.150657 0.15078 0.151026 0.151219 0.151195 0.151178 0.150834
0.150846 0.151072 0.151074 0.15101 0.151034 0.150757 0.150789 0.151026 0.150993 0.150983
0.151001 0.150751 0.15075 0.150998 0.150972 0.150975 0.150998 0.150751 0.15075 0.150999
0.150979 0.150992 0.151029 0.15079 0.150758 0.151035 0.151014 0.151076 0.151071 0.150846
0.150835 0.151178 0.151194 0.151218 0.151026 0.15078 0.150656 0.150723 0.150841 0.151075
0.151256 0.151215 0.151218 0.150893 0.150906 0.151103 0.151089 0.151025 0.15107 0.150815
0.150844 0.151057 0.151006 0.150997 0.151034 0.150807 0.150806 0.151029 0.150985 0.150988
0.15103 0.150807 0.150806 0.151032 0.150993 0.151005 0.151059 0.150845 0.150816 0.15107
0.151029 0.151091 0.151103 0.150906 0.150893 0.151218 0.151214 0.151255 0.151074 0.150841
0.150722 0.150799 0.150912 0.151131 0.151296 0.151245 0.151258 0.150962 0.150974 0.151138
0.15111 0.15105 0.151103 0.150881 0.150907 0.151088 0.151026 0.151019 0.151065 0.150872
0.150869 0.15106 0.151006 0.151009 0.151061 0.150871 0.150871 0.151064 0.151014 0.151025
0.15109 0.150908 0.150882 0.151103 0.151054 0.151112 0.151138 0.150974 0.150962 0.151257
0.151245 0.151295 0.151131 0.150911 0.150798 0.150886 0.150994 0.151197 0.151345 0.15129
0.151305 0.151041 0.151053 0.151183 0.151144 0.15109 0.151142 0.150959 0.150981 0.151127
0.151059 0.151053 0.151105 0.150947 0.150944 0.151099 0.15104 0.151043 0.1511 0.150945
0.150946 0.151103 0.151048 0.151058 0.15113 0.150982 0.15096 0.151143 0.151093 0.151146
0.151183 0.151053 0.151041 0.151305 0.151289 0.151344 0.151197 0.150994 0.150886 0.150986
0.15109 0.151275 0.151407 0.151352 0.151366 0.151133 0.151144 0.151242 0.151195 0.151146
0.151195 0.151048 0.151067 0.151181 0.15111 0.151105 0.151158 0.151035 0.15103 0.151152
0.151092 0.151095 0.151153 0.151032 0.151034 0.151156 0.1511 0.151109 0.151183 0.151068
0.151049 0.151196 0.15115 0.151197 0.151242 0.151144 0.151133 0.151366 0.151351 0.151406
0.151275 0.15109 0.150986 0.151099 0.151199 0.151366 0.151487 0.151434 0.151444 0.151239
0.151249 0.151318 0.151266 0.151222 0.151266 0.151151 0.151167 0.151253 0.151181 0.151177
0.151229 0.151136 0.151131 0.151223 0.151163 0.151167 0.151224 0.151132 0.151135 0.151227
0.151172 0.15118 0.151255 0.151168 0.151152 0.151267 0.151226 0.151268 0.151318 0.151248
0.151239 0.151444 0.151433 0.151485 0.151366 0.151199 0.151099 0.151225 0.151322 0.151472
0.151585 0.151537 0.151541 0.151359 0.151368 0.151413 0.15136 0.15132 0.151357 0.151268