# vtk DataFile Version 2.0
cgdlSides
ASCII
DATASET POLYDATA
POINTS 2772 float
0.003 0 0 0.0030205 0 0 0.0030205 0 0.001 0.003 0
0.001 0.0030205 0 0.002 0.003 0 0.002 0.0030205 0 0.003
0.003 0 0.003 0.0030205 0 0.004 0.003 0 0.004 0.0030205
0 0.005 0.003 0 0.005 0.0030205 0 0.006 0.003 0
0.006 0.0030205 0 0.007 0.003 0 0.007 0.0030205 0 0.008
0.003 0 0.008 0.0030205 0 0.009 0.003 0 0.009 0.0030205
0 0.01 0.003 0 0.01 0.0030205 0 0.011 0.003 0
0.011 0.0030205 0 0.012 0.003 0 0.012 0.0030205 0 0.013
0.003 0 0.013 0.0030205 0 0.014 0.003 0 0.014 0.0030205
0 0.015 0.003 0 0.015 0.0030205 0 0.016 0.003 0
0.016 0.0030205 0 0.017 0.003 0 0.017 0.0030205 0 0.018
0.003 0 0.018 0.0030205 0 0.019 0.003 0 0.019 0.0030205
0 0.02 0.003 0 0.02 0.0030205 0 0.021 0.003 0
0.021 0.0030205 0 0.022 0.003 0 0.022 0.003041 0 0
0.003041 0 0.001 0.003041 0 0.002 0.003041 0 0.003 0.003041
0 0.004 0.003041 0 0.005 0.003041 0 0.006 0.003041 0
0.007 0.003041 0 0.008 0.003041 0 0.009 0.003041 0 0.01
0.003041 0 0.011 0.003041 0 0.012 0.003041 0 0.013 0.003041
0 0.014 0.003041 0 0.015 0.003041 0 0.016 0.003041 0
0.017 0.003041 0 0.018 0.003041 0 0.019 0.003041 0 0.02
0.003041 0 0.021 0.003041 0 0.022 0.0030615 0 0 0.0030615
0 0.001 0.0030615 0 0.002 0.0030615 0 0.003 0.0030615 0
0.004 0.0030615 0 0.005 0.0030615 0 0.006 0.0030615 0 0.007
0.0030615 0 0.008 0.0030615 0 0.009 0.0030615 0 0.01 0.0030615
0 0.011 0.0030615 0 0.012 0.0030615 0 0.013 0.0030615 0
0.014 0.0030615 0 0.015 0.0030615 0 0.016 0.0030615 0 0.017
0.0030615 0 0.018 0.0030615 0 0.019 0.0030615 0 0.02 0.0030615
0 0.021 0.0030615 0 0.022 0.003082 0 0 0.003082 0
0.001 0.003082 0 0.002 0.003082 0 0.003 0.003082 0 0.004
0.003082 0 0.005 0.003082 0 0.006 0.003082 0 0.007 0.003082
0 0.008 0.003082 0 0.009 0.003082 0 0.01 0.003082 0
0.011 0.003082 0 0.012 0.003082 0 0.013 0.003082 0 0.014
0.003082 0 0.015 0.003082 0 0.016 0.003082 0 0.017 0.003082
0 0.018 0.003082 0 0.019 0.003082 0 0.02 0.003082 0
0.021 0.003082 0 0.022 0.0031025 0 0 0.0031025 0 0.001
0.0031025 0 0.002 0.0031025 0 0.003 0.0031025 0 0.004 0.0031025
0 0.005 0.0031025 0 0.006 0.0031025 0 0.007 0.0031025 0
0.008 0.0031025 0 0.009 0.0031025 0 0.01 0.0031025 0 0.011
0.0031025 0 0.012 0.0031025 0 0.013 0.0031025 0 0.014 0.0031025
0 0.015 0.0031025 0 0.016 0.0031025 0 0.017 0.0031025 0
0.018 0.0031025 0 0.019 0.0031025 0 0.02 0.0031025 0 0.021
0.0031025 0 0.022 0.003123 0 0 0.003123 0 0.001 0.003123
0 0.002 0.003123 0 0.003 0.003123 0 0.004 0.003123 0
0.005 0.003123 0 0.006 0.003123 0 0.007 0.003123 0 0.008
0.003123 0 0.009 0.003123 0 0.01 0.003123 0 0.011 0.003123
0 0.012 0.003123 0 0.013 0.003123 0 0.014 0.003123 0
0.015 0.003123 0 0.016 0.003123 0 0.017 0.003123 0 0.018
0.003123 0 0.019 0.003123 0 0.02 0.003123 0 0.021 0.003123
0 0.022 0.0031435 0 0 0.0031435 0 0.001 0.0031435 0
0.002 0.0031435 0 0.003 0.0031435 0 0.004 0.0031435 0 0.005
0.0031435 0 0.006 0.0031435 0 0.007 0.0031435 0 0.008 0.0031435
0 0.009 0.0031435 0 0.01 0.0031435 0 0.011 0.0031435 0
0.012 0.0031435 0 0.013 0.0031435 0 0.014 0.0031435 0 0.015
0.0031435 0 0.016 0.0031435 0 0.017 0.0031435 0 0.018 0.0031435
0 0.019 0.0031435 0 0.02 0.0031435 0 0.021 0.0031435 0
0.022 0.003164 0 0 0.003164 0 0.001 0.003164 0 0.002
0.003164 0 0.003 0.003164 0 0.004 0.003164 0 0.005 0.003164
0 0.006 0.003164 0 0.007 0.003164 0 0.008 0.003164 0
0.009 0.003164 0 0.01 0.003164 0 0.011 0.003164 0 0.012
0.003164 0 0.013 0.003164 0 0.014 0.003164 0 0.015 0.003164
0 0.016 0.003164 0 0.017 0.003164 0 0.018 0.003164 0
0.019 0.003164 0 0.02 0.003164 0 0.021 0.003164 0 0.022
0.0031845 0 0 0.0031845 0 0.001 0.0031845 0 0.002 0.0031845
0 0.003 0.0031845 0 0.004 0.0031845 0 0.005 0.0031845 0
0.006 0.0031845 0 0.007 0.0031845 0 0.008 0.0031845 0 0.009
0.0031845 0 0.01 0.0031845 0 0.011 0.0031845 0 0.012 0.0031845
0 0.013 0.0031845 0 0.014 0.0031845 0 0.015 0.0031845 0
0.016 0.0031845 0 0.017 0.0031845 0 0.018 0.0031845 0 0.019
0.0031845 0 0.02 0.0031845 0 0.021 0.0031845 0 0.022 0.003205
0 0 0.003205 0 0.001 0.003205 0 0.002 0.003205 0
0.003 0.003205 0 0.004 0.003205 0 0.005 0.003205 0 0.006
0.003205 0 0.007 0.003205 0 0.008 0.003205 0 0.009 0.003205
0 0.01 0.003205 0 0.011 0.003205 0 0.012 0.003205 0
0.013 0.003205 0 0.014 0.003205 0 0.015 0.003205 0 0.016
0.003205 0 0.017 0.003205 0 0.018 0.003205 0 0.019 0.003205
0 0.02 0.003205 0 0.021 0.003205 0 0.022 0.0032255 0
0 0.0032255 0 0.001 0.0032255 0 0.002 0.0032255 0 0.003
0.0032255 0 0.004 0.0032255 0 0.005 0.0032255 0 0.006 0.0032255
0 0.007 0.0032255 0 0.008 0.0032255 0 0.009 0.0032255 0
0.01 0.0032255 0 0.011 0.0032255 0 0.012 0.0032255 0 0.013
0.0032255 0 0.014 0.0032255 0 0.015 0.0032255 0 0.016 0.0032255
0 0.017 0.0032255 0 0.018 0.0032255 0 0.019 0.0032255 0
0.02 0.0032255 0 0.021 0.0032255 0 0.022 0.003246 0 0
0.003246 0 0.001 0.003246 0 0.002 0.003246 0 0.003 0.003246
0 0.004 0.003246 0 0.005 0.003246 0 0.006 0.003246 0
0.007 0.003246 0 0.008 0.003246 0 0.009 0.003246 0 0.01
0.003246 0 0.011 0.003246 0 0.012 0.003246 0 0.013 0.003246
0 0.014 0.003246 0 0.015 0.003246 0 0.016 0.003246 0
0.017 0.003246 0 0.018 0.003246 0 0.019 0.003246 0 0.02
0.003246 0 0.021 0.003246 0 0.022 0.0032665 0 0 0.0032665
0 0.001 0.0032665 0 0.002 0.0032665 0 0.003 0.0032665 0
0.004 0.0032665 0 0.005 0.0032665 0 0.006 0.0032665 0 0.007
0.0032665 0 0.008 0.0032665 0 0.009 0.0032665 0 0.01 0.0032665
0 0.011 0.0032665 0 0.012 0.0032665 0 0.013 0.0032665 0
0.014 0.0032665 0 0.015 0.0032665 0 0.016 0.0032665 0 0.017
0.0032665 0 0.018 0.0032665 0 0.019 0.0032665 0 0.02 0.0032665
0 0.021 0.0032665 0 0.022 0.003287 0 0 0.003287 0
0.001 0.003287 0 0.002 0.003287 0 0.003 0.003287 0 0.004
0.003287 0 0.005 0.003287 0 0.006 0.003287 0 0.007 0.003287
0 0.008 0.003287 0 0.009 0.003287 0 0.01 0.003287 0
0.011 0.003287 0 0.012 0.003287 0 0.013 0.003287 0 0.014
0.003287 0 0.015 0.003287 0 0.016 0.003287 0 0.017 0.003287
0 0.018 0.003287 0 0.019 0.003287 0 0.02 0.003287 0
0.021 0.003287 0 0.022 0.0033075 0 0 0.0033075 0 0.001
0.0033075 0 0.002 0.0033075 0 0.003 0.0033075 0 0.004 0.0033075
0 0.005 0.0033075 0 0.006 0.0033075 0 0.007 0.0033075 0
0.008 0.0033075 0 0.009 0.0033075 0 0.01 0.0033075 0 0.011
0.0033075 0 0.012 0.0033075 0 0.013 0.0033075 0 0.014 0.0033075
0 0.015 0.0033075 0 0.016 0.0033075 0 0.017 0.0033075 0
0.018 0.0033075 0 0.019 0.0033075 0 0.02 0.0033075 0 0.021
0.0033075 0 0.022 0.003328 0 0 0.003328 0 0.001 0.003328
0 0.002 0.003328 0 0.003 0.003328 0 0.004 0.003328 0
0.005 0.003328 0 0.006 0.003328 0 0.007 0.003328 0 0.008
0.003328 0 0.009 0.003328 0 0.01 0.003328 0 0.011 0.003328
0 0.012 0.003328 0 0.013 0.003328 0 0.014 0.003328 0
0.015 0.003328 0 0.016 0.003328 0 0.017 0.003328 0 0.018
0.003328 0 0.019 0.003328 0 0.02 0.003328 0 0.021 0.003328
0 0.022 0.0033485 0 0 0.0033485 0 0.001 0.0033485 0
0.002 0.0033485 0 0.003 0.0033485 0 0.004 0.0033485 0 0.005
0.0033485 0 0.006 0.0033485 0 0.007 0.0033485 0 0.008 0.0033485
0 0.009 0.0033485 0 0.01 0.0033485 0 0.011 0.0033485 0
0.012 0.0033485 0 0.013 0.0033485 0 0.014 0.0033485 0 0.015
0.0033485 0 0.016 0.0033485 0 0.017 0.0033485 0 0.018 0.0033485
0 0.019 0.0033485 0 0.02 0.0033485 0 0.021 0.0033485 0
0.022 0.003369 0 0 0.003369 0 0.001 0.003369 0 0.002
0.003369 0 0.003 0.003369 0 0.004 0.003369 0 0.005 0.003369
0 0.006 0.003369 0 0.007 0.003369 0 0.008 0.003369 0
0.009 0.003369 0 0.01 0.003369 0 0.011 0.003369 0 0.012
0.003369 0 0.013 0.003369 0 0.014 0.003369 0 0.015 0.003369
0 0.016 0.003369 0 0.017 0.003369 0 0.018 0.003369 0
0.019 0.003369 0 0.02 0.003369 0 0.021 0.003369 0 0.022
0.0033895 0 0 0.0033895 0 0.001 0.0033895 0 0.002 0.0033895
0 0.003 0.0033895 0 0.004 0.0033895 0 0.005 0.0033895 0
0.006 0.0033895 0 0.007 0.0033895 0 0.008 0.0033895 0 0.009
0.0033895 0 0.01 0.0033895 0 0.011 0.0033895 0 0.012 0.0033895
0 0.013 0.0033895 0 0.014 0.0033895 0 0.015 0.0033895 0
0.016 0.0033895 0 0.017 0.0033895 0 0.018 0.0033895 0 0.019
0.0033895 0 0.02 0.0033895 0 0.021 0.0033895 0 0.022 0.00341
0 0 0.00341 0 0.001 0.00341 0 0.002 0.00341 0
0.003 0.00341 0 0.004 0.00341 0 0.005 0.00341 0 0.006
0.00341 0 0.007 0.00341 0 0.008 0.00341 0 0.009 0.00341
0 0.01 0.00341 0 0.011 0.00341 0 0.012 0.00341 0
0.013 0.00341 0 0.014 0.00341 0 0.015 0.00341 0 0.016
0.00341 0 0.017 0.00341 0 0.018 0.00341 0 0.019 0.00341
0 0.02 0.00341 0 0.021 0.00341 0 0.022 0.003 0.022
0 0.003 0.022 0.001 0.0030205 0.022 0.001 0.0030205 0.022 0
0.003 0.022 0.002 0.0030205 0.022 0.002 0.003 0.022 0.003 0.0030205
0.022 0.003 0.003 0.022 0.004 0.0030205 0.022 0.004 0.003 0.022
0.005 0.0030205 0.022 0.005 0.003 0.022 0.006 0.0030205 0.022 0.006
0.003 0.022 0.007 0.0030205 0.022 0.007 0.003 0.022 0.008 0.0030205
0.022 0.008 0.003 0.022 0.009 0.0030205 0.022 0.009 0.003 0.022
0.01 0.0030205 0.022 0.01 0.003 0.022 0.011 0.0030205 0.022 0.011
0.003 0.022 0.012 0.0030205 0.022 0.012 0.003 0.022 0.013 0.0030205
0.022 0.013 0.003 0.022 0.014 0.0030205 0.022 0.014 0.003 0.022
0.015 0.0030205 0.022 0.015 0.003 0.022 0.016 0.0030205 0.022 0.016
0.003 0.022 0.017 0.0030205 0.022 0.017 0.003 0.022 0.018 0.0030205
0.022 0.018 0.003 0.022 0.019 0.0030205 0.022 0.019 0.003 0.022
0.02 0.0030205 0.022 0.02 0.003 0.022 0.021 0.0030205 0.022 0.021
0.003 0.022 0.022 0.0030205 0.022 0.022 0.003041 0.022 0.001 0.003041
0.022 0 0.003041 0.022 0.002 0.003041 0.022 0.003 0.003041 0.022
0.004 0.003041 0.022 0.005 0.003041 0.022 0.006 0.003041 0.022 0.007
0.003041 0.022 0.008 0.003041 0.022 0.009 0.003041 0.022 0.01 0.003041
0.022 0.011 0.003041 0.022 0.012 0.003041 0.022 0.013 0.003041 0.022
0.014 0.003041 0.022 0.015 0.003041 0.022 0.016 0.003041 0.022 0.017
0.003041 0.022 0.018 0.003041 0.022 0.019 0.003041 0.022 0.02 0.003041
0.022 0.021 0.003041 0.022 0.022 0.0030615 0.022 0.001 0.0030615 0.022
0 0.0030615 0.022 0.002 0.0030615 0.022 0.003 0.0030615 0.022 0.004
0.0030615 0.022 0.005 0.0030615 0.022 0.006 0.0030615 0.022 0.007 0.0030615
0.022 0.008 0.0030615 0.022 0.009 0.0030615 0.022 0.01 0.0030615 0.022
[...]
CELL_DATA 2640
FIELD attributes 16
patchID 1 2640 float
2 2 2 2 2 2 2 2 2 2 2
2 2 2 2 2 2 2 2 2 2
2 2 2 2 2 2 2 2 2 2
2 2 2 2 2 2 2 2 2 2
2 2 2 2 2 2 2 2 2 2
2 2 2 2 2 2 2 2 2 2
2 2 2 2 2 2 2 2 2 2
2 2 2 2 2 2 2 2 2 2
2 2 2 2 2 2 2 2 2 2
2 2 2 2 2 2 2 2 2 2
2 2 2 2 2 2 2 2 2 2
2 2 2 2 2 2 2 2 2 2
2 2 2 2 2 2 2 2 2 2
2 2 2 2 2 2 2 2 2 2
2 2 2 2 2 2 2 2 2 2
2 2 2 2 2 2 2 2 2 2
2 2 2 2 2 2 2 2 2 2
2 2 2 2 2 2 2 2 2 2
2 2 2 2 2 2 2 2 2 2
2 2 2 2 2 2 2 2 2 2
2 2 2 2 2 2 2 2 2 2
2 2 2 2 2 2 2 2 2 2
2 2 2 2 2 2 2 2 2 2
2 2 2 2 2 2 2 2 2 2
2 2 2 2 2 2 2 2 2 2
2 2 2 2 2 2 2 2 2 2
2 2 2 2 2 2 2 2 2 2
2 2 2 2 2 2 2 2 2 2
2 2 2 2 2 2 2 2 2 2
2 2 2 2 2 2 2 2 2 2
2 2 2 2 2 2 2 2 2 2
2 2 2 2 2 2 2 2 2 2
2 2 2 2 2 2 2 2 2 2
2 2 2 2 2 2 2 2 2 2
2 2 2 2 2 2 2 2 2 2
2 2 2 2 2 2 2 2 2 2
2 2 2 2 2 2 2 2 2 2
2 2 2 2 2 2 2 2 2 2
2 2 2 2 2 2 2 2 2 2
2 2 2 2 2 2 2 2 2 2
2 2 2 2 2 2 2 2 2 2
2 2 2 2 2 2 2 2 2 2
2 2 2 2 2 2 2 2 2 2
2 2 2 2 2 2 2 2 2 2
2 2 2 2 2 2 2 2 2 2
2 2 2 2 2 2 2 2 2 2
2 2 2 2 2 2 2 2 2 2
2 2 2 2 2 2 2 2 2 2
2 2 2 2 2 2 2 2 2 2
2 2 2 2 2 2 2 2 2 2
2 2 2 2 2 2 2 2 2 2
2 2 2 2 2 2 2 2 2 2
2 2 2 2 2 2 2 2 2 2
2 2 2 2 2 2 2 2 2 2
2 2 2 2 2 2 2 2 2 2
2 2 2 2 2 2 2 2 2 2
2 2 2 2 2 2 2 2 2 2
2 2 2 2 2 2 2 2 2 2
2 2 2 2 2 2 2 2 2 2
2 2 2 2 2 2 2 2 2 2
2 2 2 2 2 2 2 2 2 2
2 2 2 2 2 2 2 2 2 2
2 2 2 2 2 2 2 2 2 2
2 2 2 2 2 2 2 2 2 2
2 2 2 2 2 2 2 2 2 2
2 2 2 2 2 2 2 2 2 2
2 2 2 2 2 2 2 2 2 2
2 2 2 2 2 2 2 2 2 2
2 2 2 2 2 2 2 2 2 2
2 2 2 2 2 2 2 2 2 2
2 2 2 2 2 2 2 2 2 2
2 2 2 2 2 2 2 2 2 2
2 2 2 2 2 2 2 2 2 2
2 2 2 2 2 2 2 2 2 2
2 2 2 2 2 2 2 2 2 2
2 2 2 2 2 2 2 2 2 2
2 2 2 2 2 2 2 2 2 2
2 2 2 2 2 2 2 2 2 2
2 2 2 2 2 2 2 2 2 2
2 2 2 2 2 2 2 2 2 2
2 2 2 2 2 2 2 2 2 2
2 2 2 2 2 2 2 2 2 2
2 2 2 2 2 2 2 2 2 2
2 2 2 2 2 2 2 2 2 2
2 2 2 2 2 2 2 2 2 2
2 2 2 2 2 2 2 2 2 2
2 2 2 2 2 2 2 2 2 2
2 2 2 2 2 2 2 2 2 2
2 2 2 2 2 2 2 2 2 2
2 2 2 2 2 2 2 2 2 2
2 2 2 2 2 2 2 2 2 2
2 2 2 2 2 2 2 2 2 2
2 2 2 2 2 2 2 2 2 2
2 2 2 2 2 2 2 2 2 2
2 2 2 2 2 2 2 2 2 2
2 2 2 2 2 2 2 2 2 2
2 2 2 2 2 2 2 2 2 2
2 2 2 2 2 2 2 2 2 2
2 2 2 2 2 2 2 2 2 2
2 2 2 2 2 2 2 2 2 2
2 2 2 2 2 2 2 2 2 2
2 2 2 2 2 2 2 2 2 2
2 2 2 2 2 2 2 2 2 2
2 2 2 2 2 2 2 2 2 2
2 2 2 2 2 2 2 2 2 2
2 2 2 2 2 2 2 2 2 2
2 2 2 2 2 2 2 2 2 2
2 2 2 2 2 2 2 2 2 2
2 2 2 2 2 2 2 2 2 2
2 2 2 2 2 2 2 2 2 2
2 2 2 2 2 2 2 2 2 2
2 2 2 2 2 2 2 2 2 2
2 2 2 2 2 2 2 2 2 2
2 2 2 2 2 2 2 2 2 2
2 2 2 2 2 2 2 2 2 2
2 2 2 2 2 2 2 2 2 2
2 2 2 2 2 2 2 2 2 2
2 2 2 2 2 2 2 2 2 2
2 2 2 2 2 2 2 2 2 2
2 2 2 2 2 2 2 2 2 2
2 2 2 2 2 2 2 2 2 2
2 2 2 2 2 2 2 2 2 2
2 2 2 2 2 2 2 2 2 2
2 2 2 2 2 2 2 2 2 2
2 2 2 2 2 2 2 2 2 2
2 2 2 2 2 2 2 2 2 2
2 2 2 2 2 2 2 2 2 2
2 2 2 2 2 2 2 2 2 2
2 2 2 2 2 2 2 2 2 2
2 2 2 2 2 2 2 2 2 2
2 2 2 2 2 2 2 2 2 2
2 2 2 2 2 2 2 2 2 2
2 2 2 2 2 2 2 2 2 2
2 2 2 2 2 2 2 2 2 2
2 2 2 2 2 2 2 2 2 2
2 2 2 2 2 2 2 2 2 2
2 2 2 2 2 2 2 2 2 2
2 2 2 2 2 2 2 2 2 2
2 2 2 2 2 2 2 2 2 2
2 2 2 2 2 2 2 2 2 2
2 2 2 2 2 2 2 2 2 2
2 2 2 2 2 2 2 2 2 2
2 2 2 2 2 2 2 2 2 2
2 2 2 2 2 2 2 2 2 2
2 2 2 2 2 2 2 2 2 2
2 2 2 2 2 2 2 2 2 2
2 2 2 2 2 2 2 2 2 2
2 2 2 2 2 2 2 2 2 2
2 2 2 2 2 2 2 2 2 2
2 2 2 2 2 2 2 2 2 2
2 2 2 2 2 2 2 2 2 2
2 2 2 2 2 2 2 2 2 2
2 2 2 2 2 2 2 2 2 2
2 2 2 2 2 2 2 2 2 2
2 2 2 2 2 2 2 2 2 2
2 2 2 2 2 2 2 2 2 2
2 2 2 2 2 2 2 2 2 2
2 2 2 2 2 2 2 2 2 2
2 2 2 2 2 2 2 2 2 2
2 2 2 2 2 2 2 2 2 2
2 2 2 2 2 2 2 2 2 2
2 2 2 2 2 2 2 2 2 2
2 2 2 2 2 2 2 2 2 2
2 2 2 2 2 2 2 2 2 2
2 2 2 2 2 2 2 2 2 2
2 2 2 2 2 2 2 2 2 2
2 2 2 2 2 2 2 2 2 2
2 2 2 2 2 2 2 2 2 2
2 2 2 2 2 2 2 2 2 2
2 2 2 2 2 2 2 2 2 2
2 2 2 2 2 2 2 2 2 2
2 2 2 2 2 2 2 2 2 2
2 2 2 2 2 2 2 2 2 2
2 2 2 2 2 2 2 2 2 2
2 2 2 2 2 2 2 2 2 2
2 2 2 2 2 2 2 2 2 2
2 2 2 2 2 2 2 2 2 2
2 2 2 2 2 2 2 2 2 2
2 2 2 2 2 2 2 2 2 2
2 2 2 2 2 2 2 2 2 2
2 2 2 2 2 2 2 2 2 2
2 2 2 2 2 2 2 2 2 2
2 2 2 2 2 2 2 2 2 2
2 2 2 2 2 2 2 2 2 2
2 2 2 2 2 2 2 2 2 2
2 2 2 2 2 2 2 2 2 2
2 2 2 2 2 2 2 2 2 2
2 2 2 2 2 2 2 2 2 2
2 2 2 2 2 2 2 2 2 2
2 2 2 2 2 2 2 2 2 2
2 2 2 2 2 2 2 2 2 2
2 2 2 2 2 2 2 2 2 2
2 2 2 2 2 2 2 2 2 2
2 2 2 2 2 2 2 2 2 2
2 2 2 2 2 2 2 2 2 2
2 2 2 2 2 2 2 2 2 2
2 2 2 2 2 2 2 2 2 2
2 2 2 2 2 2 2 2 2 2
2 2 2 2 2 2 2 2 2 2
2 2 2 2 2 2 2 2 2 2
2 2 2 2 2 2 2 2 2 2
2 2 2 2 2 2 2 2 2 2
2 2 2 2 2 2 2 2 2 2
2 2 2 2 2 2 2 2 2 2
2 2 2 2 2 2 2 2 2 2
2 2 2 2 2 2 2 2 2 2
2 2 2 2 2 2 2 2 2 2
2 2 2 2 2 2 2 2 2 2
2 2 2 2 2 2 2 2 2 2
2 2 2 2 2 2 2 2 2 2
2 2 2 2 2 2 2 2 2 2
2 2 2 2 2 2 2 2 2 2
2 2 2 2 2 2 2 2 2 2
2 2 2 2 2 2 2 2 2 2
2 2 2 2 2 2 2 2 2 2
2 2 2 2 2 2 2 2 2 2
2 2 2 2 2 2 2 2 2 2
2 2 2 2 2 2 2 2 2 2
2 2 2 2 2 2 2 2 2 2
2 2 2 2 2 2 2 2 2 2
2 2 2 2 2 2 2 2 2 2
2 2 2 2 2 2 2 2 2 2
2 2 2 2 2 2 2 2 2 2
2 2 2 2 2 2 2 2 2 2
2 2 2 2 2 2 2 2 2 2
2 2 2 2 2 2 2 2 2 2
2 2 2 2 2 2 2 2 2 2
2 2 2 2 2 2 2 2 2 2
2 2 2 2 2 2 2 2 2 2
2 2 2 2 2 2 2 2 2 2
2 2 2 2 2 2 2 2 2 2
2 2 2 2 2 2 2 2 2 2
2 2 2 2 2 2 2 2 2 2
2 2 2 2 2 2 2 2 2 2
2 2 2 2 2 2 2 2 2 2
2 2 2 2 2 2 2 2 2 2
2 2 2 2 2 2 2 2 2 2
2 2 2 2 2 2 2 2 2 2
2 2 2 2 2 2 2 2 2 2
2 2 2 2 2 2 2 2 2 2
2 2 2 2 2 2 2 2 2 2
2 2 2 2 2 2 2 2 2 2
2 2 2 2 2 2 2 2 2 2
2 2 2 2 2 2 2 2 2 2
2 2 2 2 2 2 2 2 2 2
2 2 2 2 2 2 2 2 2 2
2 2 2 2 2 2 2 2 2 2
2 2 2 2 2 2 2 2 2 2
2 2 2 2 2 2 2 2 2 2
2 2 2 2 2 2 2 2 2 2
2 2 2 2 2 2 2 2 2 2
2 2 2 2 2 2 2 2 2 2
2 2 2 2 2 2 2 2 2 2
2 2 2 2 2 2 2 2 2 2
2 2 2 2 2 2 2 2 2 2
2 2 2 2 2 2 2 2 2 2
2 2 2 2 2 2 2 2 2 2
2 2 2 2 2 2 2 2 2 2
2 2 2 2 2 2 2 2 2 2
2 2 2 2 2 2 2 2 2 2
2 2 2 2 2 2 2 2 2 2
2 2 2 2 2 2 2 2 2 2
2 2 2 2 2 2 2 2 2 2
2 2 2 2 2 2 2 2 2 
YH2Oair 1 2640 float
0.152208 0.152239 0.152526 0.15288 0.153206 0.1535 0.153755 0.153974 0.154162 0.154324 0.154468
0.15459 0.154697 0.154795 0.154884 0.154971 0.155052 0.15514 0.155249 0.155408 0.155702
0.156066 0.15221 0.152241 0.152527 0.152882 0.153208 0.153502 0.153756 0.153975 0.154163
0.154326 0.154469 0.154592 0.154699 0.154797 0.154885 0.154973 0.155054 0.155142 0.155251
0.155409 0.155704 0.156068 0.152212 0.152244 0.15253 0.152884 0.153211 0.153505 0.153759
0.153978 0.154166 0.154329 0.154473 0.154595 0.154702 0.1548 0.154889 0.154976 0.155057
0.155145 0.155254 0.155412 0.155707 0.156071 0.152217 0.152248 0.152534 0.152889 0.153215
0.153509 0.153764 0.153983 0.154171 0.154334 0.154478 0.1546 0.154708 0.154805 0.154894
0.154981 0.155062 0.15515 0.155259 0.155417 0.155711 0.156076 0.152223 0.152254 0.152541
0.152895 0.153221 0.153516 0.15377 0.15399 0.154178 0.15434 0.154484 0.154607 0.154714
0.154812 0.154901 0.154988 0.155069 0.155157 0.155266 0.155424 0.155718 0.156082 0.152231
0.152262 0.152549 0.152903 0.15323 0.153524 0.153778 0.153998 0.154186 0.154349 0.154493
0.154615 0.154723 0.15482 0.154909 0.154997 0.155078 0.155165 0.155274 0.155432 0.155726
0.156091 0.152241 0.152272 0.152559 0.152913 0.153239 0.153534 0.153789 0.154008 0.154196
0.154359 0.154503 0.154626 0.154733 0.154831 0.15492 0.155007 0.155088 0.155176 0.155285
0.155443 0.155736 0.156101 0.152253 0.152284 0.15257 0.152925 0.153251 0.153546 0.153801
0.15402 0.154208 0.154371 0.154515 0.154638 0.154745 0.154843 0.154932 0.155019 0.1551
0.155188 0.155297 0.155455 0.155748 0.156113 0.152267 0.152298 0.152584 0.152939 0.153265
0.15356 0.153814 0.154034 0.154222 0.154385 0.154529 0.154651 0.154759 0.154857 0.154945
0.155033 0.155114 0.155201 0.155311 0.155468 0.155762 0.156127 0.152283 0.152314 0.1526
0.152955 0.153281 0.153576 0.15383 0.15405 0.154238 0.154401 0.154545 0.154667 0.154775
0.154872 0.154961 0.155049 0.15513 0.155217 0.155326 0.155484 0.155777 0.156142 0.1523
0.152332 0.152618 0.152973 0.153299 0.153593 0.153848 0.154067 0.154256 0.154418 0.154563
0.154685 0.154792 0.15489 0.154979 0.155067 0.155147 0.155235 0.155344 0.155501 0.155795
0.15616 0.15232 0.152352 0.152639 0.152992 0.153318 0.153613 0.153867 0.154087 0.154275
0.154438 0.154582 0.154704 0.154812 0.154909 0.154998 0.155086 0.155166 0.155254 0.155363
0.15552 0.155814 0.156179 0.152342 0.152375 0.152661 0.153014 0.15334 0.153635 0.153889
0.154108 0.154297 0.154459 0.154603 0.154725 0.154833 0.15493 0.155019 0.155107 0.155187
0.155275 0.155384 0.155541 0.155835 0.156199 0.152366 0.152399 0.152685 0.153038 0.153364
0.153659 0.153913 0.154132 0.15432 0.154482 0.154627 0.154748 0.154856 0.154953 0.155042
0.15513 0.15521 0.155297 0.155407 0.155564 0.155858 0.156222 0.152392 0.152425 0.152711
0.153064 0.15339 0.153684 0.153938 0.154157 0.154345 0.154507 0.154651 0.154773 0.15488
0.154978 0.155066 0.155154 0.155234 0.155322 0.155431 0.155589 0.155883 0.156246 0.152419
0.152453 0.152739 0.153092 0.153417 0.153712 0.153965 0.154184 0.154372 0.154534 0.154678
0.1548 0.154907 0.155004 0.155092 0.155181 0.155261 0.155348 0.155457 0.155615 0.155909
0.156273 0.152449 0.152483 0.152769 0.153122 0.153447 0.153741 0.153994 0.154213 0.1544
0.154562 0.154707 0.154828 0.154935 0.155032 0.155121 0.155209 0.155289 0.155376 0.155485
0.155643 0.155938 0.1563 0.15248 0.152515 0.1528 0.153153 0.153478 0.153772 0.154025
0.154243 0.15443 0.154592 0.154737 0.154858 0.154965 0.155062 0.15515 0.155239 0.155318
0.155405 0.155515 0.155672 0.155968 0.15633 0.152513 0.152548 0.152833 0.153186 0.15351
0.153805 0.154057 0.154275 0.154462 0.154624 0.154769 0.154889 0.154996 0.155093 0.155181
0.15527 0.155349 0.155437 0.155546 0.155704 0.155999 0.156361 0.152548 0.152583 0.152868
0.15322 0.153544 0.153839 0.154091 0.154309 0.154496 0.154657 0.154802 0.154922 0.155029
0.155126 0.155215 0.155303 0.155382 0.15547 0.155579 0.155737 0.156032 0.156393 0.152196
0.152233 0.152521 0.152877 0.153207 0.153497 0.153752 0.153971 0.154159 0.154325 0.154464
0.154587 0.154695 0.154793 0.154884 0.154968 0.155049 0.155136 0.155247 0.155408 0.155697
0.156062 0.152198 0.152235 0.152523 0.152878 0.153208 0.153499 0.153753 0.153972 0.154161
0.154326 0.154466 0.154588 0.154696 0.154794 0.154886 0.154969 0.15505 0.155138 0.155248
0.155409 0.155699 0.156063 0.152201 0.152238 0.152525 0.152881 0.153211 0.153502 0.153756
0.153976 0.154164 0.154329 0.154469 0.154592 0.1547 0.154797 0.154889 0.154973 0.155054
0.155142 0.155252 0.155412 0.155702 0.156067 0.152205 0.152242 0.15253 0.152886 0.153216
0.153506 0.153761 0.15398 0.154169 0.154334 0.154474 0.154597 0.154705 0.154803 0.154894
0.154978 0.155059 0.155147 0.155257 0.155418 0.155707 0.156071 0.152212 0.152248 0.152536
0.152892 0.153222 0.153513 0.153767 0.153987 0.154176 0.154341 0.154481 0.154603 0.154711
0.154809 0.154901 0.154985 0.155065 0.155153 0.155263 0.155424 0.155713 0.156078 0.15222
0.152256 0.152544 0.1529 0.15323 0.153521 0.153775 0.153995 0.154184 0.154349 0.15449
0.154612 0.15472 0.154818 0.15491 0.154993 0.155074 0.155162 0.155272 0.155433 0.155721
0.156087 0.152229 0.152266 0.152554 0.15291 0.15324 0.153531 0.153785 0.154005 0.154194
0.15436 0.1545 0.154622 0.15473 0.154828 0.15492 0.155004 0.155084 0.155172 0.155282
0.155443 0.155731 0.156097 0.152241 0.152278 0.152566 0.152922 0.153252 0.153543 0.153798
0.154017 0.154206 0.154372 0.154512 0.154634 0.154742 0.15484 0.154932 0.155016 0.155096
0.155184 0.155294 0.155455 0.155743 0.156109 0.152255 0.152292 0.15258 0.152936 0.153266
0.153556 0.153811 0.154031 0.15422 0.154386 0.154526 0.154648 0.154756 0.154854 0.154946
0.15503 0.15511 0.155198 0.155308 0.155469 0.155757 0.156122 0.15227 0.152308 0.152596
0.152951 0.153281 0.153572 0.153827 0.154047 0.154236 0.154401 0.154542 0.154664 0.154772
0.15487 0.154962 0.155045 0.155126 0.155214 0.155324 0.155484 0.155772 0.156138 0.152288
0.152326 0.152614 0.152969 0.153299 0.15359 0.153845 0.154065 0.154253 0.154419 0.154559
0.154682 0.154789 0.154887 0.154979 0.155063 0.155143 0.155231 0.155341 0.155502 0.15579
0.156155 0.152308 0.152346 0.152634 0.152989 0.153319 0.15361 0.153865 0.154084 0.154273
0.154439 0.154579 0.154701 0.154809 0.154907 0.154998 0.155082 0.155163 0.15525 0.15536
0.155521 0.155809 0.156174 0.152329 0.152369 0.152656 0.153011 0.153341 0.153631 0.153886
0.154106 0.154294 0.15446 0.1546 0.154722 0.15483 0.154928 0.15502 0.155103 0.155184
0.155271 0.155381 0.155542 0.15583 0.156195 0.152353 0.152393 0.152681 0.153035 0.153365
0.153655 0.15391 0.154129 0.154317 0.154483 0.154623 0.154745 0.154853 0.15495 0.155042
0.155126 0.155206 0.155294 0.155404 0.155565 0.155853 0.156218 0.152379 0.152419 0.152707
0.153061 0.153391 0.153681 0.153935 0.154154 0.154343 0.154508 0.154648 0.15477 0.154877
0.154975 0.155067 0.15515 0.155231 0.155318 0.155428 0.155589 0.155877 0.156242 0.152406
0.152447 0.152735 0.153089 0.153419 0.153708 0.153962 0.154181 0.154369 0.154535 0.154674
0.154796 0.154904 0.155001 0.155094 0.155176 0.155257 0.155345 0.155454 0.155616 0.155904
0.156268 0.152436 0.152477 0.152764 0.153118 0.153448 0.153737 0.153991 0.15421 0.154398
0.154564 0.154702 0.154824 0.154932 0.155029 0.155122 0.155204 0.155285 0.155373 0.155482
0.155644 0.155932 0.156296 0.152467 0.152509 0.152796 0.15315 0.153479 0.153768 0.154022
0.15424 0.154428 0.154594 0.154732 0.154854 0.154962 0.155059 0.155152 0.155234 0.155314
0.155402 0.155512 0.155674 0.155962 0.156325 0.152499 0.152542 0.152829 0.153182 0.153512
0.153801 0.154054 0.154272 0.15446 0.154626 0.154764 0.154886 0.154993 0.155091 0.155183
0.155265 0.155346 0.155433 0.155543 0.155705 0.155993 0.156356 0.152534 0.152577 0.152863
0.153217 0.153546 0.153835 0.154088 0.154306 0.154493 0.154659 0.154797 0.154919 0.155026
0.155124 0.155216 0.155298 0.155379 0.155466 0.155576 0.155738 0.156026 0.156389 0.152208
0.151373 0.150097 0.15005 0.15005 0.150085 0.150994 0.150973 0.150083 0.150049 0.15005
0.150083 0.150979 0.150976 0.150083 0.15005 0.15005 0.150083 0.150977 0.150976 0.150083
0.15005 0.15005 0.150083 0.150976 0.150977 0.150083 0.15005 0.15005 0.150083 0.150977
0.150981 0.150084 0.15005 0.150049 0.150083 0.150972 0.150993 0.150085 0.15005 0.15005
0.150097 0.151366 0.152196 0.15221 0.151374 0.150122 0.150063 0.150063 0.150106 0.150996
0.150975 0.150104 0.150063 0.150063 0.150104 0.150981 0.150977 0.150104 0.150063 0.150063
0.150104 0.150978 0.150978 0.150104 0.150063 0.150063 0.150104 0.150978 0.150979 0.150104
0.150063 0.150063 0.150104 0.150979 0.150982 0.150105 0.150063 0.150063 0.150103 0.150974
0.150995 0.150106 0.150063 0.150063 0.150121 0.151367 0.152198 0.152212 0.151376 0.150148
0.150078 0.150079 0.150129 0.150999 0.150978 0.150127 0.150078 0.150078 0.150128 0.150984
0.15098 0.150127 0.150078 0.150078 0.150127 0.150981 0.150981 0.150127 0.150078 0.150078
0.150127 0.150981 0.150982 0.150127 0.150078 0.150078 0.150127 0.150982 0.150986 0.150128
0.150078 0.150078 0.150126 0.150977 0.150998 0.150129 0.150078 0.150078 0.150148 0.151369
0.152201 0.152217 0.15138 0.150177 0.150096 0.150096 0.150155 0.151004 0.150983 0.150152
0.150095 0.150095 0.150153 0.150989 0.150985 0.150152 0.150095 0.150095 0.150152 0.150986
0.150986 0.150152 0.150095 0.150095 0.150152 0.150986 0.150987 0.150153 0.150095 0.150095
0.150152 0.150987 0.15099 0.150153 0.150095 0.150095 0.150151 0.150982 0.151003 0.150155
0.150096 0.150095 0.150176 0.151373 0.152205 0.152223 0.151385 0.150208 0.150116 0.150116
0.150183 0.15101 0.150989 0.150179 0.150115 0.150115 0.15018 0.150995 0.150992 0.15018
0.150115 0.150115 0.15018 0.150993 0.150992 0.15018 0.150115 0.150115 0.15018 0.150992
0.150993 0.15018 0.150115 0.150115 0.15018 0.150993 0.150997 0.150181 0.150115 0.150115
0.150179 0.150988 0.151009 0.150182 0.150116 0.150115 0.150207 0.151378 0.152212 0.152231
0.151393 0.150241 0.150138 0.150138 0.150212 0.151019 0.150998 0.150208 0.150137 0.150137
0.15021 0.151004 0.151 0.150209 0.150137 0.150137 0.150209 0.151001 0.151001 0.150209
0.150137 0.150137 0.150209 0.151001 0.151002 0.150209 0.150137 0.150137 0.150209 0.151002
0.151006 0.15021 0.150137 0.150137 0.150208 0.150997 0.151018 0.150212 0.150138 0.150137
0.15024 0.151385 0.15222 0.152241 0.151402 0.150276 0.150163 0.150163 0.150244 0.15103
0.151009 0.150239 0.150161 0.150161 0.150241 0.151015 0.151011 0.15024 0.150161 0.150161
0.150241 0.151012 0.151012 0.15024 0.150161 0.150161 0.15024 0.151012 0.151013 0.150241
0.150161 0.150161 0.15024 0.151013 0.151017 0.150242 0.150162 0.150161 0.150239 0.151008
0.151029 0.150244 0.150162 0.150162 0.150275 0.151395 0.152229 0.152253 0.151414 0.150313
0.15019 0.15019 0.150278 0.151043 0.151021 0.150273 0.150188 0.150188 0.150275 0.151028
0.151024 0.150274 0.150188 0.150188 0.150274 0.151025 0.151025 0.150274 0.150188 0.150188
0.150274 0.151025 0.151026 0.150274 0.150188 0.150188 0.150274 0.151026 0.151029 0.150275
0.150188 0.150187 0.150273 0.15102 0.151042 0.150278 0.150189 0.150189 0.150311 0.151407
0.152241 0.152267 0.151429 0.150352 0.150219 0.150219 0.150313 0.151058 0.151037 0.150308
0.150216 0.150217 0.15031 0.151043 0.151039 0.150309 0.150216 0.150217 0.150309 0.15104
0.151039 0.150309 0.150217 0.150217 0.150309 0.15104 0.15104 0.150309 0.150217 0.150217
0.150309 0.151041 0.151045 0.15031 0.150217 0.150216 0.150308 0.151035 0.151057 0.150313
0.150218 0.150218 0.15035 0.151421 0.152255 0.152283 0.151445 0.150392 0.15025 0.150249
0.15035 0.151075 0.151054 0.150345 0.150247 0.150248 0.150346 0.15106 0.151056 0.150345
0.150247 0.150247 0.150346 0.151057 0.151057 0.150346 0.150247 0.150247 0.150346 0.151057
0.151058 0.150346 0.150247 0.150247 0.150346 0.151058 0.151062 0.150347 0.150248 0.150247
0.150344 0.151053 0.151074 0.15035 0.150249 0.150249 0.15039 0.151438 0.15227 0.1523
0.151465 0.150433 0.150283 0.150282 0.150389 0.151095 0.151073 0.150382 0.15028 0.15028
0.150384 0.151079 0.151076 0.150383 0.15028 0.15028 0.150384 0.151076 0.151076 0.150383
0.15028 0.15028 0.150383 0.151076 0.151077 0.150384 0.15028 0.15028 0.150383 0.151077
0.151081 0.150385 0.150281 0.15028 0.150382 0.151072 0.151093 0.150388 0.150281 0.150282
0.150431 0.151457 0.152288 0.15232 0.151487 0.150475 0.150318 0.150317 0.150428 0.151116
0.151095 0.150421 0.150314 0.150314 0.150423 0.151101 0.151097 0.150422 0.150314 0.150314
0.150422 0.151098 0.151098 0.150422 0.150314 0.150314 0.150422 0.151098 0.151099 0.150423
0.150314 0.150314 0.150422 0.151099 0.151103 0.150424 0.150315 0.150314 0.150421 0.151094
0.151115 0.150428 0.150316 0.150316 0.150472 0.151479 0.152308 0.152342 0.151511 0.150518
0.150354 0.150352 0.150468 0.15114 0.151119 0.150461 0.150349 0.15035 0.150463 0.151124
0.151121 0.150462 0.150349 0.150349 0.150462 0.151122 0.151121 0.150462 0.150349 0.150349
0.150462 0.151121 0.151122 0.150462 0.150349 0.150349 0.150462 0.151122 0.151126 0.150464
0.15035 0.150349 0.150461 0.151118 0.151138 0.150468 0.150351 0.150352 0.150515 0.151503
0.152329 0.152366 0.151538 0.150561 0.150391 0.150389 0.150509 0.151165 0.151145 0.150502
0.150386 0.150386 0.150503 0.15115 0.151147 0.150502 0.150385 0.150385 0.150502 0.151147
0.151147 0.150502 0.150385 0.150385 0.150502 0.151147 0.151148 0.150503 0.150386 0.150386
0.150502 0.151148 0.151152 0.150504 0.150387 0.150386 0.150501 0.151143 0.151164 0.150508
0.150388 0.150389 0.150558 0.15153 0.152353 0.152392 0.151567 0.150604 0.150429 0.150426
0.15055 0.151193 0.151172 0.150542 0.150423 0.150423 0.150544 0.151178 0.151174 0.150543
0.150422 0.150423 0.150543 0.151175 0.151174 0.150543 0.150423 0.150423 0.150543 0.151175
0.151175 0.150543 0.150423 0.150423 0.150543 0.151176 0.15118 0.150545 0.150424 0.150423
0.150541 0.151171 0.151192 0.150549 0.150425 0.150427 0.1506 0.151558 0.152379 0.152419
0.151598 0.150646 0.150467 0.150464 0.15059 0.151222 0.151202 0.150583 0.150461 0.150461
0.150584 0.151207 0.151204 0.150583 0.15046 0.15046 0.150583 0.151204 0.151204 0.150583
0.15046 0.15046 0.150583 0.151204 0.151205 0.150584 0.150461 0.150461 0.150583 0.151205
0.151209 0.150586 0.150462 0.150461 0.150582 0.151201 0.151221 0.150589 0.150463 0.150465
0.150642 0.151589 0.152406 0.152449 0.151631 0.150688 0.150506 0.150503 0.150631 0.151254
0.151233 0.150623 0.150499 0.150499 0.150625 0.151238 0.151235 0.150623 0.150498 0.150498
0.150623 0.151235 0.151235 0.150623 0.150498 0.150498 0.150623 0.151235 0.151236 0.150624
0.150499 0.150499 0.150624 0.151237 0.15124 0.150626 0.1505 0.150499 0.150622 0.151232
0.151252 0.15063 0.150501 0.150503 0.150684 0.151622 0.152436 0.15248 0.151665 0.150729
0.150544 0.150541 0.15067 0.151286 0.151266 0.150663 0.150537 0.150537 0.150664 0.151271