# vtk DataFile Version 2.0
cgdlSides
ASCII
DATASET POLYDATA
POINTS 2772 float
0.003 0 0 0.0030205 0 0 0.0030205 0 0.001 0.003 0
0.001 0.0030205 0 0.002 0.003 0 0.002 0.0030205 0 0.003
0.003 0 0.003 0.0030205 0 0.004 0.003 0 0.004 0.0030205
0 0.005 0.003 0 0.005 0.0030205 0 0.006 0.003 0
0.006 0.0030205 0 0.007 0.003 0 0.007 0.0030205 0 0.008
0.003 0 0.008 0.0030205 0 0.009 0.003 0 0.009 0.0030205
0 0.01 0.003 0 0.01 0.0030205 0 0.011 0.003 0
0.011 0.0030205 0 0.012 0.003 0 0.012 0.0030205 0 0.013
0.003 0 0.013 0.0030205 0 0.014 0.003 0 0.014 0.0030205
0 0.015 0.003 0 0.015 0.0030205 0 0.016 0.003 0
0.016 0.0030205 0 0.017 0.003 0 0.017 0.0030205 0 0.018
0.003 0 0.018 0.0030205 0 0.019 0.003 0 0.019 0.0030205
0 0.02 0.003 0 0.02 0.0030205 0 0.021 0.003 0
0.021 0.0030205 0 0.022 0.003 0 0.022 0.003041 0 0
0.003041 0 0.001 0.003041 0 0.002 0.003041 0 0.003 0.003041
0 0.004 0.003041 0 0.005 0.003041 0 0.006 0.003041 0
0.007 0.003041 0 0.008 0.003041 0 0.009 0.003041 0 0.01
0.003041 0 0.011 0.003041 0 0.012 0.003041 0 0.013 0.003041
0 0.014 0.003041 0 0.015 0.003041 0 0.016 0.003041 0
0.017 0.003041 0 0.018 0.003041 0 0.019 0.003041 0 0.02
0.003041 0 0.021 0.003041 0 0.022 0.0030615 0 0 0.0030615
0 0.001 0.0030615 0 0.002 0.0030615 0 0.003 0.0030615 0
0.004 0.0030615 0 0.005 0.0030615 0 0.006 0.0030615 0 0.007
0.0030615 0 0.008 0.0030615 0 0.009 0.0030615 0 0.01 0.0030615
0 0.011 0.0030615 0 0.012 0.0030615 0 0.013 0.0030615 0
0.014 0.0030615 0 0.015 0.0030615 0 0.016 0.0030615 0 0.017
0.0030615 0 0.018 0.0030615 0 0.019 0.0030615 0 0.02 0.0030615
0 0.021 0.0030615 0 0.022 0.003082 0 0 0.003082 0
0.001 0.003082 0 0.002 0.003082 0 0.003 0.003082 0 0.004
0.003082 0 0.005 0.003082 0 0.006 0.003082 0 0.007 0.003082
0 0.008 0.003082 0 0.009 0.003082 0 0.01 0.003082 0
0.011 0.003082 0 0.012 0.003082 0 0.013 0.003082 0 0.014
0.003082 0 0.015 0.003082 0 0.016 0.003082 0 0.017 0.003082
0 0.018 0.003082 0 0.019 0.003082 0 0.02 0.003082 0
0.021 0.003082 0 0.022 0.0031025 0 0 0.0031025 0 0.001
0.0031025 0 0.002 0.0031025 0 0.003 0.0031025 0 0.004 0.0031025
0 0.005 0.0031025 0 0.006 0.0031025 0 0.007 0.0031025 0
0.008 0.0031025 0 0.009 0.0031025 0 0.01 0.0031025 0 0.011
0.0031025 0 0.012 0.0031025 0 0.013 0.0031025 0 0.014 0.0031025
0 0.015 0.0031025 0 0.016 0.0031025 0 0.017 0.0031025 0
0.018 0.0031025 0 0.019 0.0031025 0 0.02 0.0031025 0 0.021
0.0031025 0 0.022 0.003123 0 0 0.003123 0 0.001 0.003123
0 0.002 0.003123 0 0.003 0.003123 0 0.004 0.003123 0
0.005 0.003123 0 0.006 0.003123 0 0.007 0.003123 0 0.008
0.003123 0 0.009 0.003123 0 0.01 0.003123 0 0.011 0.003123
0 0.012 0.003123 0 0.013 0.003123 0 0.014 0.003123 0
0.015 0.003123 0 0.016 0.003123 0 0.017 0.003123 0 0.018
0.003123 0 0.019 0.003123 0 0.02 0.003123 0 0.021 0.003123
0 0.022 0.0031435 0 0 0.0031435 0 0.001 0.0031435 0
0.002 0.0031435 0 0.003 0.0031435 0 0.004 0.0031435 0 0.005
0.0031435 0 0.006 0.0031435 0 0.007 0.0031435 0 0.008 0.0031435
0 0.009 0.0031435 0 0.01 0.0031435 0 0.011 0.0031435 0
0.012 0.0031435 0 0.013 0.0031435 0 0.014 0.0031435 0 0.015
0.0031435 0 0.016 0.0031435 0 0.017 0.0031435 0 0.018 0.0031435
0 0.019 0.0031435 0 0.02 0.0031435 0 0.021 0.0031435 0
0.022 0.003164 0 0 0.003164 0 0.001 0.003164 0 0.002
0.003164 0 0.003 0.003164 0 0.004 0.003164 0 0.005 0.003164
0 0.006 0.003164 0 0.007 0.003164 0 0.008 0.003164 0
0.009 0.003164 0 0.01 0.003164 0 0.011 0.003164 0 0.012
0.003164 0 0.013 0.003164 0 0.014 0.003164 0 0.015 0.003164
0 0.016 0.003164 0 0.017 0.003164 0 0.018 0.003164 0
0.019 0.003164 0 0.02 0.003164 0 0.021 0.003164 0 0.022
0.0031845 0 0 0.0031845 0 0.001 0.0031845 0 0.002 0.0031845
0 0.003 0.0031845 0 0.004 0.0031845 0 0.005 0.0031845 0
0.006 0.0031845 0 0.007 0.0031845 0 0.008 0.0031845 0 0.009
0.0031845 0 0.01 0.0031845 0 0.011 0.0031845 0 0.012 0.0031845
0 0.013 0.0031845 0 0.014 0.0031845 0 0.015 0.0031845 0
0.016 0.0031845 0 0.017 0.0031845 0 0.018 0.0031845 0 0.019
0.0031845 0 0.02 0.0031845 0 0.021 0.0031845 0 0.022 0.003205
0 0 0.003205 0 0.001 0.003205 0 0.002 0.003205 0
0.003 0.003205 0 0.004 0.003205 0 0.005 0.003205 0 0.006
0.003205 0 0.007 0.003205 0 0.008 0.003205 0 0.009 0.003205
0 0.01 0.003205 0 0.011 0.003205 0 0.012 0.003205 0
0.013 0.003205 0 0.014 0.003205 0 0.015 0.003205 0 0.016
0.003205 0 0.017 0.003205 0 0.018 0.003205 0 0.019 0.003205
0 0.02 0.003205 0 0.021 0.003205 0 0.022 0.0032255 0
0 0.0032255 0 0.001 0.0032255 0 0.002 0.0032255 0 0.003
0.0032255 0 0.004 0.0032255 0 0.005 0.0032255 0 0.006 0.0032255
0 0.007 0.0032255 0 0.008 0.0032255 0 0.009 0.0032255 0
0.01 0.0032255 0 0.011 0.0032255 0 0.012 0.0032255 0 0.013
0.0032255 0 0.014 0.0032255 0 0.015 0.0032255 0 0.016 0.0032255
0 0.017 0.0032255 0 0.018 0.0032255 0 0.019 0.0032255 0
0.02 0.0032255 0 0.021 0.0032255 0 0.022 0.003246 0 0
0.003246 0 0.001 0.003246 0 0.002 0.003246 0 0.003 0.003246
0 0.004 0.003246 0 0.005 0.003246 0 0.006 0.003246 0
0.007 0.003246 0 0.008 0.003246 0 0.009 0.003246 0 0.01
0.003246 0 0.011 0.003246 0 0.012 0.003246 0 0.013 0.003246
0 0.014 0.003246 0 0.015 0.003246 0 0.016 0.003246 0
0.017 0.003246 0 0.018 0.003246 0 0.019 0.003246 0 0.02
0.003246 0 0.021 0.003246 0 0.022 0.0032665 0 0 0.0032665
0 0.001 0.0032665 0 0.002 0.0032665 0 0.003 0.0032665 0
0.004 0.0032665 0 0.005 0.0032665 0 0.006 0.0032665 0 0.007
0.0032665 0 0.008 0.0032665 0 0.009 0.0032665 0 0.01 0.0032665
0 0.011 0.0032665 0 0.012 0.0032665 0 0.013 0.0032665 0
0.014 0.0032665 0 0.015 0.0032665 0 0.016 0.0032665 0 0.017
0.0032665 0 0.018 0.0032665 0 0.019 0.0032665 0 0.02 0.0032665
0 0.021 0.0032665 0 0.022 0.003287 0 0 0.003287 0
0.001 0.003287 0 0.002 0.003287 0 0.003 0.003287 0 0.004
0.003287 0 0.005 0.003287 0 0.006 0.003287 0 0.007 0.003287
0 0.008 0.003287 0 0.009 0.003287 0 0.01 0.003287 0
0.011 0.003287 0 0.012 0.003287 0 0.013 0.003287 0 0.014
0.003287 0 0.015 0.003287 0 0.016 0.003287 0 0.017 0.003287
0 0.018 0.003287 0 0.019 0.003287 0 0.02 0.003287 0
0.021 0.003287 0 0.022 0.0033075 0 0 0.0033075 0 0.001
0.0033075 0 0.002 0.0033075 0 0.003 0.0033075 0 0.004 0.0033075
0 0.005 0.0033075 0 0.006 0.0033075 0 0.007 0.0033075 0
0.008 0.0033075 0 0.009 0.0033075 0 0.01 0.0033075 0 0.011
0.0033075 0 0.012 0.0033075 0 0.013 0.0033075 0 0.014 0.0033075
0 0.015 0.0033075 0 0.016 0.0033075 0 0.017 0.0033075 0
0.018 0.0033075 0 0.019 0.0033075 0 0.02 0.0033075 0 0.021
0.0033075 0 0.022 0.003328 0 0 0.003328 0 0.001 0.003328
0 0.002 0.003328 0 0.003 0.003328 0 0.004 0.003328 0
0.005 0.003328 0 0.006 0.003328 0 0.007 0.003328 0 0.008
0.003328 0 0.009 0.003328 0 0.01 0.003328 0 0.011 0.003328
0 0.012 0.003328 0 0.013 0.003328 0 0.014 0.003328 0
0.015 0.003328 0 0.016 0.003328 0 0.017 0.003328 0 0.018
0.003328 0 0.019 0.003328 0 0.02 0.003328 0 0.021 0.003328
0 0.022 0.0033485 0 0 0.0033485 0 0.001 0.0033485 0
0.002 0.0033485 0 0.003 0.0033485 0 0.004 0.0033485 0 0.005
0.0033485 0 0.006 0.0033485 0 0.007 0.0033485 0 0.008 0.0033485
0 0.009 0.0033485 0 0.01 0.0033485 0 0.011 0.0033485 0
0.012 0.0033485 0 0.013 0.0033485 0 0.014 0.0033485 0 0.015
0.0033485 0 0.016 0.0033485 0 0.017 0.0033485 0 0.018 0.0033485
0 0.019 0.0033485 0 0.02 0.0033485 0 0.021 0.0033485 0
0.022 0.003369 0 0 0.003369 0 0.001 0.003369 0 0.002
0.003369 0 0.003 0.003369 0 0.004 0.003369 0 0.005 0.003369
0 0.006 0.003369 0 0.007 0.003369 0 0.008 0.003369 0
0.009 0.003369 0 0.01 0.003369 0 0.011 0.003369 0 0.012
0.003369 0 0.013 0.003369 0 0.014 0.003369 0 0.015 0.003369
0 0.016 0.003369 0 0.017 0.003369 0 0.018 0.003369 0
0.019 0.003369 0 0.02 0.003369 0 0.021 0.003369 0 0.022
0.0033895 0 0 0.0033895 0 0.001 0.0033895 0 0.002 0.0033895
0 0.003 0.0033895 0 0.004 0.0033895 0 0.005 0.0033895 0
0.006 0.0033895 0 0.007 0.0033895 0 0.008 0.0033895 0 0.009
0.0033895 0 0.01 0.0033895 0 0.011 0.0033895 0 0.012 0.0033895
0 0.013 0.0033895 0 0.014 0.0033895 0 0.015 0.0033895 0
0.016 0.0033895 0 0.017 0.0033895 0 0.018 0.0033895 0 0.019
0.0033895 0 0.02 0.0033895 0 0.021 0.0033895 0 0.022 0.00341
0 0 0.00341 0 0.001 0.00341 0 0.002 0.00341 0
0.003 0.00341 0 0.004 0.00341 0 0.005 0.00341 0 0.006
0.00341 0 0.007 0.00341 0 0.008 0.00341 0 0.009 0.00341
0 0.01 0.00341 0 0.011 0.00341 0 0.012 0.00341 0
0.013 0.00341 0 0.014 0.00341 0 0.015 0.00341 0 0.016
0.00341 0 0.017 0.00341 0 0.018 0.00341 0 0.019 0.00341
0 0.02 0.00341 0 0.021 0.00341 0 0.022 0.003 0.022
0 0.003 0.022 0.001 0.0030205 0.022 0.001 0.0030205 0.022 0
0.003 0.022 0.002 0.0030205 0.022 0.002 0.003 0.022 0.003 0.0030205
0.022 0.003 0.003 0.022 0.004 0.0030205 0.022 0.004 0.003 0.022
0.005 0.0030205 0.022 0.005 0.003 0.022 0.006 0.0030205 0.022 0.006
0.003 0.022 0.007 0.0030205 0.022 0.007 0.003 0.022 0.008 0.0030205
0.022 0.008 0.003 0.022 0.009 0.0030205 0.022 0.009 0.003 0.022
0.01 0.0030205 0.022 0.01 0.003 0.022 0.011 0.0030205 0.022 0.011
0.003 0.022 0.012 0.0030205 0.022 0.012 0.003 0.022 0.013 0.0030205
0.022 0.013 0.003 0.022 0.014 0.0030205 0.022 0.014 0.003 0.022
0.015 0.0030205 0.022 0.015 0.003 0.022 0.016 0.0030205 0.022 0.016
0.003 0.022 0.017 0.0030205 0.022 0.017 0.003 0.022 0.018 0.0030205
0.022 0.018 0.003 0.022 0.019 0.0030205 0.022 0.019 0.003 0.022
0.02 0.0030205 0.022 0.02 0.003 0.022 0.021 0.0030205 0.022 0.021
0.003 0.022 0.022 0.0030205 0.022 0.022 0.003041 0.022 0.001 0.003041
0.022 0 0.003041 0.022 0.002 0.003041 0.022 0.003 0.003041 0.022
0.004 0.003041 0.022 0.005 0.003041 0.022 0.006 0.003041 0.022 0.007
0.003041 0.022 0.008 0.003041 0.022 0.009 0.003041 0.022 0.01 0.003041
0.022 0.011 0.003041 0.022 0.012 0.003041 0.022 0.013 0.003041 0.022
0.014 0.003041 0.022 0.015 0.003041 0.022 0.016 0.003041 0.022 0.017
0.003041 0.022 0.018 0.003041 0.022 0.019 0.003041 0.022 0.02 0.003041
0.022 0.021 0.003041 0.022 0.022 0.0030615 0.022 0.001 0.0030615 0.022
0 0.0030615 0.022 0.002 0.0030615 0.022 0.003 0.0030615 0.022 0.004
0.0030615 0.022 0.005 0.0030615 0.022 0.006 0.0030615 0.022 0.007 0.0030615
0.022 0.008 0.0030615 0.022 0.009 0.0030615 0.022 0.01 0.0030615 0.022
[...]
CELL_DATA 2640
FIELD attributes 16
patchID 1 2640 float
2 2 2 2 2 2 2 2 2 2 2
2 2 2 2 2 2 2 2 2 2
2 2 2 2 2 2 2 2 2 2
2 2 2 2 2 2 2 2 2 2
2 2 2 2 2 2 2 2 2 2
2 2 2 2 2 2 2 2 2 2
2 2 2 2 2 2 2 2 2 2
2 2 2 2 2 2 2 2 2 2
2 2 2 2 2 2 2 2 2 2
2 2 2 2 2 2 2 2 2 2
2 2 2 2 2 2 2 2 2 2
2 2 2 2 2 2 2 2 2 2
2 2 2 2 2 2 2 2 2 2
2 2 2 2 2 2 2 2 2 2
2 2 2 2 2 2 2 2 2 2
2 2 2 2 2 2 2 2 2 2
2 2 2 2 2 2 2 2 2 2
2 2 2 2 2 2 2 2 2 2
2 2 2 2 2 2 2 2 2 2
2 2 2 2 2 2 2 2 2 2
2 2 2 2 2 2 2 2 2 2
2 2 2 2 2 2 2 2 2 2
2 2 2 2 2 2 2 2 2 2
2 2 2 2 2 2 2 2 2 2
2 2 2 2 2 2 2 2 2 2
2 2 2 2 2 2 2 2 2 2
2 2 2 2 2 2 2 2 2 2
2 2 2 2 2 2 2 2 2 2
2 2 2 2 2 2 2 2 2 2
2 2 2 2 2 2 2 2 2 2
2 2 2 2 2 2 2 2 2 2
2 2 2 2 2 2 2 2 2 2
2 2 2 2 2 2 2 2 2 2
2 2 2 2 2 2 2 2 2 2
2 2 2 2 2 2 2 2 2 2
2 2 2 2 2 2 2 2 2 2
2 2 2 2 2 2 2 2 2 2
2 2 2 2 2 2 2 2 2 2
2 2 2 2 2 2 2 2 2 2
2 2 2 2 2 2 2 2 2 2
2 2 2 2 2 2 2 2 2 2
2 2 2 2 2 2 2 2 2 2
2 2 2 2 2 2 2 2 2 2
2 2 2 2 2 2 2 2 2 2
2 2 2 2 2 2 2 2 2 2
2 2 2 2 2 2 2 2 2 2
2 2 2 2 2 2 2 2 2 2
2 2 2 2 2 2 2 2 2 2
2 2 2 2 2 2 2 2 2 2
2 2 2 2 2 2 2 2 2 2
2 2 2 2 2 2 2 2 2 2
2 2 2 2 2 2 2 2 2 2
2 2 2 2 2 2 2 2 2 2
2 2 2 2 2 2 2 2 2 2
2 2 2 2 2 2 2 2 2 2
2 2 2 2 2 2 2 2 2 2
2 2 2 2 2 2 2 2 2 2
2 2 2 2 2 2 2 2 2 2
2 2 2 2 2 2 2 2 2 2
2 2 2 2 2 2 2 2 2 2
2 2 2 2 2 2 2 2 2 2
2 2 2 2 2 2 2 2 2 2
2 2 2 2 2 2 2 2 2 2
2 2 2 2 2 2 2 2 2 2
2 2 2 2 2 2 2 2 2 2
2 2 2 2 2 2 2 2 2 2
2 2 2 2 2 2 2 2 2 2
2 2 2 2 2 2 2 2 2 2
2 2 2 2 2 2 2 2 2 2
2 2 2 2 2 2 2 2 2 2
2 2 2 2 2 2 2 2 2 2
2 2 2 2 2 2 2 2 2 2
2 2 2 2 2 2 2 2 2 2
2 2 2 2 2 2 2 2 2 2
2 2 2 2 2 2 2 2 2 2
2 2 2 2 2 2 2 2 2 2
2 2 2 2 2 2 2 2 2 2
2 2 2 2 2 2 2 2 2 2
2 2 2 2 2 2 2 2 2 2
2 2 2 2 2 2 2 2 2 2
2 2 2 2 2 2 2 2 2 2
2 2 2 2 2 2 2 2 2 2
2 2 2 2 2 2 2 2 2 2
2 2 2 2 2 2 2 2 2 2
2 2 2 2 2 2 2 2 2 2
2 2 2 2 2 2 2 2 2 2
2 2 2 2 2 2 2 2 2 2
2 2 2 2 2 2 2 2 2 2
2 2 2 2 2 2 2 2 2 2
2 2 2 2 2 2 2 2 2 2
2 2 2 2 2 2 2 2 2 2
2 2 2 2 2 2 2 2 2 2
2 2 2 2 2 2 2 2 2 2
2 2 2 2 2 2 2 2 2 2
2 2 2 2 2 2 2 2 2 2
2 2 2 2 2 2 2 2 2 2
2 2 2 2 2 2 2 2 2 2
2 2 2 2 2 2 2 2 2 2
2 2 2 2 2 2 2 2 2 2
2 2 2 2 2 2 2 2 2 2
2 2 2 2 2 2 2 2 2 2
2 2 2 2 2 2 2 2 2 2
2 2 2 2 2 2 2 2 2 2
2 2 2 2 2 2 2 2 2 2
2 2 2 2 2 2 2 2 2 2
2 2 2 2 2 2 2 2 2 2
2 2 2 2 2 2 2 2 2 2
2 2 2 2 2 2 2 2 2 2
2 2 2 2 2 2 2 2 2 2
2 2 2 2 2 2 2 2 2 2
2 2 2 2 2 2 2 2 2 2
2 2 2 2 2 2 2 2 2 2
2 2 2 2 2 2 2 2 2 2
2 2 2 2 2 2 2 2 2 2
2 2 2 2 2 2 2 2 2 2
2 2 2 2 2 2 2 2 2 2
2 2 2 2 2 2 2 2 2 2
2 2 2 2 2 2 2 2 2 2
2 2 2 2 2 2 2 2 2 2
2 2 2 2 2 2 2 2 2 2
2 2 2 2 2 2 2 2 2 2
2 2 2 2 2 2 2 2 2 2
2 2 2 2 2 2 2 2 2 2
2 2 2 2 2 2 2 2 2 2
2 2 2 2 2 2 2 2 2 2
2 2 2 2 2 2 2 2 2 2
2 2 2 2 2 2 2 2 2 2
2 2 2 2 2 2 2 2 2 2
2 2 2 2 2 2 2 2 2 2
2 2 2 2 2 2 2 2 2 2
2 2 2 2 2 2 2 2 2 2
2 2 2 2 2 2 2 2 2 2
2 2 2 2 2 2 2 2 2 2
2 2 2 2 2 2 2 2 2 2
2 2 2 2 2 2 2 2 2 2
2 2 2 2 2 2 2 2 2 2
2 2 2 2 2 2 2 2 2 2
2 2 2 2 2 2 2 2 2 2
2 2 2 2 2 2 2 2 2 2
2 2 2 2 2 2 2 2 2 2
2 2 2 2 2 2 2 2 2 2
2 2 2 2 2 2 2 2 2 2
2 2 2 2 2 2 2 2 2 2
2 2 2 2 2 2 2 2 2 2
2 2 2 2 2 2 2 2 2 2
2 2 2 2 2 2 2 2 2 2
2 2 2 2 2 2 2 2 2 2
2 2 2 2 2 2 2 2 2 2
2 2 2 2 2 2 2 2 2 2
2 2 2 2 2 2 2 2 2 2
2 2 2 2 2 2 2 2 2 2
2 2 2 2 2 2 2 2 2 2
2 2 2 2 2 2 2 2 2 2
2 2 2 2 2 2 2 2 2 2
2 2 2 2 2 2 2 2 2 2
2 2 2 2 2 2 2 2 2 2
2 2 2 2 2 2 2 2 2 2
2 2 2 2 2 2 2 2 2 2
2 2 2 2 2 2 2 2 2 2
2 2 2 2 2 2 2 2 2 2
2 2 2 2 2 2 2 2 2 2
2 2 2 2 2 2 2 2 2 2
2 2 2 2 2 2 2 2 2 2
2 2 2 2 2 2 2 2 2 2
2 2 2 2 2 2 2 2 2 2
2 2 2 2 2 2 2 2 2 2
2 2 2 2 2 2 2 2 2 2
2 2 2 2 2 2 2 2 2 2
2 2 2 2 2 2 2 2 2 2
2 2 2 2 2 2 2 2 2 2
2 2 2 2 2 2 2 2 2 2
2 2 2 2 2 2 2 2 2 2
2 2 2 2 2 2 2 2 2 2
2 2 2 2 2 2 2 2 2 2
2 2 2 2 2 2 2 2 2 2
2 2 2 2 2 2 2 2 2 2
2 2 2 2 2 2 2 2 2 2
2 2 2 2 2 2 2 2 2 2
2 2 2 2 2 2 2 2 2 2
2 2 2 2 2 2 2 2 2 2
2 2 2 2 2 2 2 2 2 2
2 2 2 2 2 2 2 2 2 2
2 2 2 2 2 2 2 2 2 2
2 2 2 2 2 2 2 2 2 2
2 2 2 2 2 2 2 2 2 2
2 2 2 2 2 2 2 2 2 2
2 2 2 2 2 2 2 2 2 2
2 2 2 2 2 2 2 2 2 2
2 2 2 2 2 2 2 2 2 2
2 2 2 2 2 2 2 2 2 2
2 2 2 2 2 2 2 2 2 2
2 2 2 2 2 2 2 2 2 2
2 2 2 2 2 2 2 2 2 2
2 2 2 2 2 2 2 2 2 2
2 2 2 2 2 2 2 2 2 2
2 2 2 2 2 2 2 2 2 2
2 2 2 2 2 2 2 2 2 2
2 2 2 2 2 2 2 2 2 2
2 2 2 2 2 2 2 2 2 2
2 2 2 2 2 2 2 2 2 2
2 2 2 2 2 2 2 2 2 2
2 2 2 2 2 2 2 2 2 2
2 2 2 2 2 2 2 2 2 2
2 2 2 2 2 2 2 2 2 2
2 2 2 2 2 2 2 2 2 2
2 2 2 2 2 2 2 2 2 2
2 2 2 2 2 2 2 2 2 2
2 2 2 2 2 2 2 2 2 2
2 2 2 2 2 2 2 2 2 2
2 2 2 2 2 2 2 2 2 2
2 2 2 2 2 2 2 2 2 2
2 2 2 2 2 2 2 2 2 2
2 2 2 2 2 2 2 2 2 2
2 2 2 2 2 2 2 2 2 2
2 2 2 2 2 2 2 2 2 2
2 2 2 2 2 2 2 2 2 2
2 2 2 2 2 2 2 2 2 2
2 2 2 2 2 2 2 2 2 2
2 2 2 2 2 2 2 2 2 2
2 2 2 2 2 2 2 2 2 2
2 2 2 2 2 2 2 2 2 2
2 2 2 2 2 2 2 2 2 2
2 2 2 2 2 2 2 2 2 2
2 2 2 2 2 2 2 2 2 2
2 2 2 2 2 2 2 2 2 2
2 2 2 2 2 2 2 2 2 2
2 2 2 2 2 2 2 2 2 2
2 2 2 2 2 2 2 2 2 2
2 2 2 2 2 2 2 2 2 2
2 2 2 2 2 2 2 2 2 2
2 2 2 2 2 2 2 2 2 2
2 2 2 2 2 2 2 2 2 2
2 2 2 2 2 2 2 2 2 2
2 2 2 2 2 2 2 2 2 2
2 2 2 2 2 2 2 2 2 2
2 2 2 2 2 2 2 2 2 2
2 2 2 2 2 2 2 2 2 2
2 2 2 2 2 2 2 2 2 2
2 2 2 2 2 2 2 2 2 2
2 2 2 2 2 2 2 2 2 2
2 2 2 2 2 2 2 2 2 2
2 2 2 2 2 2 2 2 2 2
2 2 2 2 2 2 2 2 2 2
2 2 2 2 2 2 2 2 2 2
2 2 2 2 2 2 2 2 2 2
2 2 2 2 2 2 2 2 2 2
2 2 2 2 2 2 2 2 2 2
2 2 2 2 2 2 2 2 2 2
2 2 2 2 2 2 2 2 2 2
2 2 2 2 2 2 2 2 2 2
2 2 2 2 2 2 2 2 2 2
2 2 2 2 2 2 2 2 2 2
2 2 2 2 2 2 2 2 2 2
2 2 2 2 2 2 2 2 2 2
2 2 2 2 2 2 2 2 2 2
2 2 2 2 2 2 2 2 2 2
2 2 2 2 2 2 2 2 2 2
2 2 2 2 2 2 2 2 2 2
2 2 2 2 2 2 2 2 2 2
2 2 2 2 2 2 2 2 2 2
2 2 2 2 2 2 2 2 2 2
2 2 2 2 2 2 2 2 2 2
2 2 2 2 2 2 2 2 2 2
2 2 2 2 2 2 2 2 2 
YH2Oair 1 2640 float
0.151945 0.15214 0.152452 0.152809 0.153135 0.153427 0.153681 0.1539 0.15409 0.154255 0.154403
0.154531 0.154645 0.154748 0.154843 0.154935 0.155021 0.15511 0.155216 0.155364 0.155645
0.156042 0.151946 0.152141 0.152453 0.15281 0.153136 0.153428 0.153682 0.153901 0.154091
0.154257 0.154405 0.154533 0.154647 0.15475 0.154845 0.154937 0.155022 0.155112 0.155217
0.155366 0.155647 0.156043 0.151949 0.152144 0.152456 0.152812 0.153139 0.153431 0.153685
0.153904 0.154094 0.15426 0.154408 0.154536 0.15465 0.154753 0.154848 0.15494 0.155026
0.155115 0.155221 0.155369 0.155649 0.156047 0.151953 0.152148 0.152461 0.152817 0.153143
0.153436 0.15369 0.153909 0.154099 0.154265 0.154413 0.154541 0.154655 0.154758 0.154853
0.154945 0.155031 0.15512 0.155226 0.155374 0.155654 0.156051 0.151959 0.152154 0.152467
0.152823 0.153149 0.153442 0.153696 0.153915 0.154106 0.154271 0.154419 0.154547 0.154662
0.154765 0.15486 0.154952 0.155037 0.155127 0.155232 0.155381 0.15566 0.156058 0.151967
0.152162 0.152475 0.152831 0.153157 0.15345 0.153704 0.153924 0.154114 0.15428 0.154428
0.154556 0.15467 0.154774 0.154868 0.15496 0.155046 0.155135 0.155241 0.155389 0.155669
0.156066 0.151977 0.152172 0.152484 0.15284 0.153167 0.15346 0.153714 0.153934 0.154124
0.15429 0.154438 0.154566 0.15468 0.154784 0.154878 0.154971 0.155056 0.155145 0.155251
0.155399 0.155678 0.156076 0.151988 0.152184 0.152496 0.152852 0.153179 0.153472 0.153726
0.153946 0.154136 0.154302 0.15445 0.154578 0.154692 0.154796 0.154891 0.154983 0.155068
0.155157 0.155263 0.155411 0.15569 0.156088 0.152002 0.152198 0.15251 0.152866 0.153192
0.153486 0.15374 0.153959 0.15415 0.154316 0.154464 0.154592 0.154706 0.15481 0.154904
0.154997 0.155082 0.155171 0.155277 0.155425 0.155704 0.156101 0.152018 0.152214 0.152526
0.152882 0.153208 0.153502 0.153755 0.153975 0.154166 0.154332 0.15448 0.154608 0.154722
0.154825 0.15492 0.155013 0.155098 0.155187 0.155292 0.15544 0.15572 0.156117 0.152036
0.152232 0.152544 0.1529 0.153226 0.153519 0.153773 0.153993 0.154183 0.154349 0.154498
0.154625 0.15474 0.154843 0.154938 0.15503 0.155115 0.155204 0.15531 0.155458 0.155737
0.156134 0.152057 0.152253 0.152564 0.15292 0.153246 0.153539 0.153793 0.154013 0.154203
0.154369 0.154517 0.154645 0.154759 0.154862 0.154957 0.15505 0.155135 0.155224 0.155329
0.155477 0.155756 0.156153 0.152079 0.152275 0.152587 0.152942 0.153268 0.153561 0.153815
0.154034 0.154224 0.15439 0.154538 0.154666 0.15478 0.154883 0.154978 0.155071 0.155156
0.155245 0.15535 0.155498 0.155778 0.156174 0.152103 0.152299 0.152611 0.152966 0.153292
0.153585 0.153838 0.154058 0.154248 0.154413 0.154562 0.154689 0.154803 0.154906 0.155001
0.155094 0.155179 0.155268 0.155373 0.155521 0.155801 0.156197 0.15213 0.152326 0.152637
0.152992 0.153318 0.153611 0.153864 0.154083 0.154273 0.154438 0.154587 0.154714 0.154828
0.154931 0.155026 0.155118 0.155203 0.155292 0.155398 0.155546 0.155826 0.156222 0.152158
0.152354 0.152665 0.15302 0.153345 0.153639 0.153891 0.15411 0.1543 0.154465 0.154614
0.154741 0.154855 0.154958 0.155052 0.155145 0.155229 0.155318 0.155424 0.155572 0.155852
0.156248 0.152189 0.152384 0.152695 0.15305 0.153375 0.153668 0.15392 0.154139 0.154329
0.154494 0.154642 0.154769 0.154883 0.154986 0.15508 0.155173 0.155257 0.155346 0.155452
0.1556 0.155881 0.156276 0.152221 0.152416 0.152727 0.153081 0.153406 0.153699 0.153951
0.15417 0.154359 0.154524 0.154673 0.154799 0.154913 0.155016 0.15511 0.155203 0.155287
0.155376 0.155482 0.15563 0.155911 0.156306 0.152255 0.15245 0.15276 0.153114 0.153439
0.153732 0.153983 0.154202 0.154391 0.154556 0.154705 0.154831 0.154944 0.155047 0.155142
0.155235 0.155319 0.155407 0.155513 0.155661 0.155943 0.156337 0.152289 0.152484 0.152795
0.153149 0.153473 0.153766 0.154017 0.154236 0.154425 0.154589 0.154738 0.154864 0.154978
0.15508 0.155175 0.155268 0.155352 0.15544 0.155546 0.155694 0.155976 0.15637 0.151936
0.152134 0.152448 0.152805 0.153134 0.153424 0.153678 0.153897 0.154088 0.154255 0.1544
0.154528 0.154642 0.154746 0.154843 0.154932 0.155017 0.155107 0.155213 0.155364 0.155641
0.156038 0.151937 0.152135 0.152449 0.152807 0.153136 0.153425 0.153679 0.153899 0.154089
0.154257 0.154402 0.15453 0.154644 0.154748 0.154845 0.154934 0.155019 0.155108 0.155215
0.155366 0.155642 0.15604 0.151939 0.152138 0.152452 0.152809 0.153139 0.153428 0.153682
0.153902 0.154092 0.15426 0.154405 0.154533 0.154647 0.154751 0.154848 0.154937 0.155022
0.155112 0.155218 0.155369 0.155646 0.156043 0.151944 0.152142 0.152456 0.152814 0.153143
0.153433 0.153686 0.153906 0.154097 0.154265 0.15441 0.154538 0.154652 0.154756 0.154853
0.154942 0.155027 0.155117 0.155223 0.155374 0.15565 0.156047 0.15195 0.152149 0.152462
0.15282 0.153149 0.153439 0.153693 0.153913 0.154104 0.154272 0.154417 0.154545 0.154659
0.154763 0.15486 0.154949 0.155034 0.155124 0.15523 0.15538 0.155656 0.156054 0.151957
0.152157 0.15247 0.152828 0.153157 0.153447 0.153701 0.153921 0.154112 0.15428 0.154425
0.154553 0.154667 0.154771 0.154868 0.154957 0.155043 0.155132 0.155238 0.155389 0.155665
0.156062 0.151967 0.152166 0.15248 0.152837 0.153167 0.153457 0.153711 0.153931 0.154122
0.15429 0.154435 0.154563 0.154677 0.154781 0.154879 0.154968 0.155053 0.155142 0.155248
0.155399 0.155674 0.156072 0.151979 0.152178 0.152492 0.152849 0.153179 0.153469 0.153723
0.153943 0.154134 0.154302 0.154447 0.154575 0.15469 0.154794 0.154891 0.15498 0.155065
0.155154 0.15526 0.155411 0.155686 0.156084 0.151992 0.152192 0.152506 0.152863 0.153192
0.153483 0.153737 0.153957 0.154148 0.154316 0.154461 0.154589 0.154703 0.154807 0.154905
0.154994 0.155079 0.155168 0.155274 0.155425 0.1557 0.156097 0.152008 0.152208 0.152522
0.152878 0.153208 0.153498 0.153752 0.153973 0.154163 0.154332 0.154477 0.154605 0.154719
0.154823 0.15492 0.155009 0.155095 0.155184 0.15529 0.15544 0.155715 0.156113 0.152026
0.152226 0.15254 0.152896 0.153226 0.153516 0.15377 0.15399 0.154181 0.15435 0.154494
0.154622 0.154737 0.15484 0.154938 0.155027 0.155112 0.155201 0.155307 0.155458 0.155733
0.15613 0.152047 0.152247 0.15256 0.152917 0.153246 0.153536 0.15379 0.15401 0.154201
0.154369 0.154514 0.154642 0.154756 0.15486 0.154957 0.155046 0.155131 0.15522 0.155327
0.155477 0.155752 0.156149 0.152069 0.152269 0.152582 0.152939 0.153268 0.153558 0.153812
0.154032 0.154222 0.154391 0.154535 0.154663 0.154777 0.154881 0.154978 0.155067 0.155152
0.155242 0.155347 0.155498 0.155773 0.15617 0.152093 0.152294 0.152607 0.152963 0.153292
0.153582 0.153835 0.154055 0.154245 0.154414 0.154558 0.154686 0.1548 0.154904 0.155002
0.15509 0.155175 0.155264 0.15537 0.155521 0.155796 0.156193 0.15212 0.15232 0.152633
0.152989 0.153318 0.153607 0.153861 0.15408 0.154271 0.154439 0.154583 0.154711 0.154825
0.154929 0.155026 0.155115 0.1552 0.155289 0.155395 0.155546 0.155821 0.156218 0.152148
0.152349 0.152661 0.153017 0.153346 0.153635 0.153888 0.154107 0.154298 0.154466 0.15461
0.154738 0.154852 0.154955 0.155053 0.155141 0.155226 0.155315 0.155421 0.155572 0.155848
0.156244 0.152178 0.152379 0.152691 0.153047 0.153376 0.153664 0.153917 0.154136 0.154326
0.154495 0.154639 0.154766 0.15488 0.154983 0.155081 0.155169 0.155254 0.155343 0.155449
0.155601 0.155876 0.156272 0.15221 0.152411 0.152723 0.153078 0.153407 0.153695 0.153948
0.154167 0.154357 0.154525 0.154669 0.154796 0.15491 0.155013 0.155111 0.155199 0.155284
0.155373 0.155479 0.15563 0.155906 0.156302 0.152243 0.152444 0.152756 0.153111 0.15344
0.153728 0.15398 0.154199 0.154389 0.154557 0.154701 0.154828 0.154941 0.155045 0.155143
0.15523 0.155315 0.155404 0.15551 0.155662 0.155937 0.156333 0.152278 0.152479 0.152791
0.153145 0.153475 0.153762 0.154014 0.154233 0.154422 0.154591 0.154734 0.154861 0.154975
0.155078 0.155176 0.155263 0.155348 0.155437 0.155543 0.155695 0.15597 0.156366 0.151945
0.15118 0.150101 0.150061 0.150063 0.150095 0.150944 0.150922 0.150093 0.150063 0.150063
0.150094 0.15093 0.150926 0.150094 0.150063 0.150063 0.150094 0.150927 0.150927 0.150094
0.150063 0.150063 0.150094 0.150927 0.150928 0.150094 0.150063 0.150063 0.150094 0.150927
0.150932 0.150094 0.150063 0.150063 0.150093 0.150921 0.150943 0.150095 0.150063 0.150061
0.150101 0.151174 0.151936 0.151946 0.151181 0.150126 0.150076 0.150079 0.150118 0.150945
0.150924 0.150116 0.150078 0.150079 0.150117 0.150932 0.150928 0.150116 0.150079 0.150079
0.150116 0.150929 0.150929 0.150116 0.150079 0.150079 0.150116 0.150929 0.150929 0.150116
0.150079 0.150079 0.150116 0.150929 0.150934 0.150117 0.150079 0.150078 0.150115 0.150923
0.150944 0.150118 0.150078 0.150076 0.150125 0.151175 0.151937 0.151949 0.151183 0.150152
0.150093 0.150096 0.150143 0.150948 0.150927 0.15014 0.150096 0.150096 0.150141 0.150935
0.150931 0.150141 0.150096 0.150096 0.150141 0.150932 0.150932 0.150141 0.150096 0.150096
0.150141 0.150932 0.150933 0.150141 0.150096 0.150096 0.150141 0.150932 0.150937 0.150142
0.150097 0.150096 0.15014 0.150926 0.150948 0.150143 0.150096 0.150093 0.150152 0.151177
0.151939 0.151953 0.151187 0.150181 0.150113 0.150116 0.15017 0.150954 0.150932 0.150167
0.150116 0.150116 0.150168 0.15094 0.150936 0.150167 0.150116 0.150116 0.150168 0.150937
0.150937 0.150168 0.150116 0.150116 0.150168 0.150937 0.150937 0.150168 0.150116 0.150116
0.150167 0.150937 0.150942 0.150168 0.150117 0.150116 0.150166 0.150931 0.150953 0.15017
0.150116 0.150112 0.15018 0.151181 0.151944 0.151959 0.151193 0.150212 0.150135 0.150138
0.150199 0.150961 0.150939 0.150195 0.150138 0.150139 0.150197 0.150947 0.150943 0.150196
0.150138 0.150138 0.150196 0.150944 0.150944 0.150196 0.150138 0.150138 0.150196 0.150944
0.150944 0.150196 0.150138 0.150138 0.150196 0.150944 0.150948 0.150197 0.150139 0.150138
0.150195 0.150938 0.15096 0.150199 0.150138 0.150134 0.150211 0.151187 0.15195 0.151967
0.151201 0.150244 0.150159 0.150163 0.15023 0.15097 0.150948 0.150226 0.150162 0.150163
0.150228 0.150956 0.150952 0.150227 0.150163 0.150163 0.150227 0.150953 0.150953 0.150227
0.150163 0.150163 0.150227 0.150953 0.150953 0.150227 0.150163 0.150163 0.150227 0.150953
0.150958 0.150228 0.150163 0.150162 0.150226 0.150947 0.150969 0.150229 0.150162 0.150158
0.150243 0.151195 0.151957 0.151977 0.151211 0.150279 0.150186 0.150189 0.150263 0.150981
0.150959 0.150258 0.150189 0.15019 0.15026 0.150967 0.150963 0.150259 0.150189 0.150189
0.150259 0.150964 0.150964 0.150259 0.150189 0.150189 0.150259 0.150964 0.150965 0.15026
0.150189 0.150189 0.150259 0.150964 0.150969 0.150261 0.15019 0.150189 0.150258 0.150958
0.15098 0.150262 0.150189 0.150185 0.150277 0.151205 0.151967 0.151988 0.151224 0.150315
0.150214 0.150218 0.150297 0.150994 0.150972 0.150292 0.150218 0.150218 0.150294 0.150981
0.150976 0.150293 0.150218 0.150218 0.150294 0.150977 0.150977 0.150294 0.150218 0.150218
0.150294 0.150977 0.150978 0.150294 0.150218 0.150218 0.150293 0.150977 0.150982 0.150295
0.150219 0.150217 0.150292 0.150971 0.150993 0.150297 0.150217 0.150213 0.150313 0.151218
0.151979 0.152002 0.151239 0.150352 0.150245 0.150249 0.150333 0.15101 0.150988 0.150328
0.150248 0.150249 0.15033 0.150996 0.150992 0.150329 0.150248 0.150248 0.150329 0.150993
0.150993 0.150329 0.150248 0.150248 0.150329 0.150993 0.150993 0.15033 0.150248 0.150248
0.150329 0.150993 0.150998 0.150331 0.150249 0.150248 0.150328 0.150987 0.151009 0.150333
0.150248 0.150244 0.150351 0.151233 0.151992 0.152018 0.151257 0.150392 0.150277 0.150281
0.150371 0.151028 0.151006 0.150365 0.15028 0.150281 0.150367 0.151014 0.15101 0.150366
0.15028 0.15028 0.150367 0.151011 0.151011 0.150366 0.150281 0.150281 0.150366 0.151011
0.151011 0.150367 0.150281 0.15028 0.150366 0.151011 0.151016 0.150368 0.150281 0.15028
0.150365 0.151005 0.151027 0.15037 0.15028 0.150276 0.15039 0.151251 0.152008 0.152036
0.151278 0.150432 0.150311 0.150315 0.150409 0.151048 0.151026 0.150403 0.150314 0.150314
0.150406 0.151034 0.15103 0.150404 0.150314 0.150314 0.150405 0.151031 0.151031 0.150405
0.150314 0.150314 0.150405 0.151031 0.151031 0.150405 0.150314 0.150314 0.150404 0.151031
0.151036 0.150406 0.150315 0.150314 0.150403 0.151025 0.151047 0.150409 0.150314 0.15031
0.150429 0.151272 0.152026 0.152057 0.151301 0.150473 0.150346 0.15035 0.150449 0.15107
0.151048 0.150442 0.150349 0.150349 0.150445 0.151056 0.151052 0.150443 0.150349 0.150349
0.150444 0.151053 0.151053 0.150444 0.150349 0.150349 0.150444 0.151053 0.151054 0.150444
0.150349 0.150349 0.150444 0.151053 0.151058 0.150446 0.15035 0.150349 0.150442 0.151047
0.151069 0.150448 0.150349 0.150345 0.15047 0.151295 0.152047 0.152079 0.151327 0.150514
0.150383 0.150386 0.150489 0.151094 0.151073 0.150482 0.150385 0.150385 0.150485 0.151081
0.151076 0.150483 0.150385 0.150385 0.150483 0.151077 0.151077 0.150483 0.150385 0.150385
0.150483 0.151077 0.151078 0.150484 0.150385 0.150385 0.150483 0.151078 0.151082 0.150486
0.150386 0.150385 0.150482 0.151072 0.151093 0.150488 0.150385 0.150381 0.150512 0.15132
0.152069 0.152103 0.151355 0.150556 0.15042 0.150423 0.150529 0.151121 0.151099 0.150522
0.150422 0.150422 0.150525 0.151107 0.151103 0.150523 0.150421 0.150422 0.150523 0.151104
0.151104 0.150523 0.150422 0.150422 0.150523 0.151104 0.151104 0.150524 0.150422 0.150422
0.150523 0.151104 0.151109 0.150526 0.150423 0.150421 0.150522 0.151099 0.15112 0.150529
0.150422 0.150418 0.150553 0.151348 0.152093 0.15213 0.151385 0.150598 0.150458 0.15046
0.15057 0.151149 0.151128 0.150563 0.150459 0.150459 0.150565 0.151135 0.151131 0.150563
0.150459 0.150459 0.150564 0.151132 0.151132 0.150564 0.150459 0.150459 0.150564 0.151132
0.151133 0.150564 0.150459 0.150459 0.150564 0.151132 0.151137 0.150566 0.15046 0.150459
0.150562 0.151127 0.151148 0.150569 0.150459 0.150456 0.150595 0.151378 0.15212 0.152158
0.151417 0.150639 0.150496 0.150498 0.15061 0.151179 0.151158 0.150603 0.150497 0.150497
0.150605 0.151165 0.151161 0.150604 0.150496 0.150497 0.150604 0.151162 0.151162 0.150604
0.150497 0.150497 0.150604 0.151162 0.151163 0.150604 0.150497 0.150497 0.150604 0.151163
0.151167 0.150606 0.150498 0.150497 0.150602 0.151157 0.151178 0.150609 0.150497 0.150494
0.150636 0.15141 0.152148 0.152189 0.151451 0.15068 0.150534 0.150537 0.15065 0.151211
0.15119 0.150643 0.150535 0.150535 0.150645 0.151197 0.151193 0.150644 0.150534 0.150535
0.150644 0.151194 0.151194 0.150644 0.150535 0.150535 0.150644 0.151194 0.151194 0.150644
0.150535 0.150535 0.150644 0.151194 0.151199 0.150646 0.150536 0.150535 0.150642 0.151189
0.15121 0.150649 0.150535 0.150532 0.150677 0.151443 0.152178 0.152221 0.151486 0.150721
0.150573 0.150575 0.15069 0.151244 0.151223 0.150683 0.150573 0.150573 0.150685 0.15123