# vtk DataFile Version 2.0
cbpSides
ASCII
DATASET POLYDATA
POINTS 4812 float
0 0 0 0.0001 0 0 0.0001 0 0.001 0 0
0.001 0.0001 0 0.002 0 0 0.002 0.0001 0 0.003
0 0 0.003 0.0001 0 0.004 0 0 0.004 0.0001
0 0.005 0 0 0.005 0.0001 0 0.006 0 0
0.006 0.0001 0 0.007 0 0 0.007 0.0001 0 0.008
0 0 0.008 0.0001 0 0.009 0 0 0.009 0.0001
0 0.01 0 0 0.01 0.0001 0 0.011 0 0
0.011 0.0001 0 0.012 0 0 0.012 0.0001 0 0.013
0 0 0.013 0.0001 0 0.014 0 0 0.014 0.0001
0 0.015 0 0 0.015 0.0001 0 0.016 0 0
0.016 0.0001 0 0.017 0 0 0.017 0.0001 0 0.018
0 0 0.018 0.0001 0 0.019 0 0 0.019 0.0001
0 0.02 0 0 0.02 0.0001 0 0.021 0 0
0.021 0.0001 0 0.022 0 0 0.022 0.0002 0 0
0.0002 0 0.001 0.0002 0 0.002 0.0002 0 0.003 0.0002
0 0.004 0.0002 0 0.005 0.0002 0 0.006 0.0002 0
0.007 0.0002 0 0.008 0.0002 0 0.009 0.0002 0 0.01
0.0002 0 0.011 0.0002 0 0.012 0.0002 0 0.013 0.0002
0 0.014 0.0002 0 0.015 0.0002 0 0.016 0.0002 0
0.017 0.0002 0 0.018 0.0002 0 0.019 0.0002 0 0.02
0.0002 0 0.021 0.0002 0 0.022 0.0003 0 0 0.0003
0 0.001 0.0003 0 0.002 0.0003 0 0.003 0.0003 0
0.004 0.0003 0 0.005 0.0003 0 0.006 0.0003 0 0.007
0.0003 0 0.008 0.0003 0 0.009 0.0003 0 0.01 0.0003
0 0.011 0.0003 0 0.012 0.0003 0 0.013 0.0003 0
0.014 0.0003 0 0.015 0.0003 0 0.016 0.0003 0 0.017
0.0003 0 0.018 0.0003 0 0.019 0.0003 0 0.02 0.0003
0 0.021 0.0003 0 0.022 0.0004 0 0 0.0004 0
0.001 0.0004 0 0.002 0.0004 0 0.003 0.0004 0 0.004
0.0004 0 0.005 0.0004 0 0.006 0.0004 0 0.007 0.0004
0 0.008 0.0004 0 0.009 0.0004 0 0.01 0.0004 0
0.011 0.0004 0 0.012 0.0004 0 0.013 0.0004 0 0.014
0.0004 0 0.015 0.0004 0 0.016 0.0004 0 0.017 0.0004
0 0.018 0.0004 0 0.019 0.0004 0 0.02 0.0004 0
0.021 0.0004 0 0.022 0.0005 0 0 0.0005 0 0.001
0.0005 0 0.002 0.0005 0 0.003 0.0005 0 0.004 0.0005
0 0.005 0.0005 0 0.006 0.0005 0 0.007 0.0005 0
0.008 0.0005 0 0.009 0.0005 0 0.01 0.0005 0 0.011
0.0005 0 0.012 0.0005 0 0.013 0.0005 0 0.014 0.0005
0 0.015 0.0005 0 0.016 0.0005 0 0.017 0.0005 0
0.018 0.0005 0 0.019 0.0005 0 0.02 0.0005 0 0.021
0.0005 0 0.022 0.0006 0 0 0.0006 0 0.001 0.0006
0 0.002 0.0006 0 0.003 0.0006 0 0.004 0.0006 0
0.005 0.0006 0 0.006 0.0006 0 0.007 0.0006 0 0.008
0.0006 0 0.009 0.0006 0 0.01 0.0006 0 0.011 0.0006
0 0.012 0.0006 0 0.013 0.0006 0 0.014 0.0006 0
0.015 0.0006 0 0.016 0.0006 0 0.017 0.0006 0 0.018
0.0006 0 0.019 0.0006 0 0.02 0.0006 0 0.021 0.0006
0 0.022 0.0007 0 0 0.0007 0 0.001 0.0007 0
0.002 0.0007 0 0.003 0.0007 0 0.004 0.0007 0 0.005
0.0007 0 0.006 0.0007 0 0.007 0.0007 0 0.008 0.0007
0 0.009 0.0007 0 0.01 0.0007 0 0.011 0.0007 0
0.012 0.0007 0 0.013 0.0007 0 0.014 0.0007 0 0.015
0.0007 0 0.016 0.0007 0 0.017 0.0007 0 0.018 0.0007
0 0.019 0.0007 0 0.02 0.0007 0 0.021 0.0007 0
0.022 0.0008 0 0 0.0008 0 0.001 0.0008 0 0.002
0.0008 0 0.003 0.0008 0 0.004 0.0008 0 0.005 0.0008
0 0.006 0.0008 0 0.007 0.0008 0 0.008 0.0008 0
0.009 0.0008 0 0.01 0.0008 0 0.011 0.0008 0 0.012
0.0008 0 0.013 0.0008 0 0.014 0.0008 0 0.015 0.0008
0 0.016 0.0008 0 0.017 0.0008 0 0.018 0.0008 0
0.019 0.0008 0 0.02 0.0008 0 0.021 0.0008 0 0.022
0.0009 0 0 0.0009 0 0.001 0.0009 0 0.002 0.0009
0 0.003 0.0009 0 0.004 0.0009 0 0.005 0.0009 0
0.006 0.0009 0 0.007 0.0009 0 0.008 0.0009 0 0.009
0.0009 0 0.01 0.0009 0 0.011 0.0009 0 0.012 0.0009
0 0.013 0.0009 0 0.014 0.0009 0 0.015 0.0009 0
0.016 0.0009 0 0.017 0.0009 0 0.018 0.0009 0 0.019
0.0009 0 0.02 0.0009 0 0.021 0.0009 0 0.022 0.001
0 0 0.001 0 0.001 0.001 0 0.002 0.001 0
0.003 0.001 0 0.004 0.001 0 0.005 0.001 0 0.006
0.001 0 0.007 0.001 0 0.008 0.001 0 0.009 0.001
0 0.01 0.001 0 0.011 0.001 0 0.012 0.001 0
0.013 0.001 0 0.014 0.001 0 0.015 0.001 0 0.016
0.001 0 0.017 0.001 0 0.018 0.001 0 0.019 0.001
0 0.02 0.001 0 0.021 0.001 0 0.022 0.0011 0
0 0.0011 0 0.001 0.0011 0 0.002 0.0011 0 0.003
0.0011 0 0.004 0.0011 0 0.005 0.0011 0 0.006 0.0011
0 0.007 0.0011 0 0.008 0.0011 0 0.009 0.0011 0
0.01 0.0011 0 0.011 0.0011 0 0.012 0.0011 0 0.013
0.0011 0 0.014 0.0011 0 0.015 0.0011 0 0.016 0.0011
0 0.017 0.0011 0 0.018 0.0011 0 0.019 0.0011 0
0.02 0.0011 0 0.021 0.0011 0 0.022 0.0012 0 0
0.0012 0 0.001 0.0012 0 0.002 0.0012 0 0.003 0.0012
0 0.004 0.0012 0 0.005 0.0012 0 0.006 0.0012 0
0.007 0.0012 0 0.008 0.0012 0 0.009 0.0012 0 0.01
0.0012 0 0.011 0.0012 0 0.012 0.0012 0 0.013 0.0012
0 0.014 0.0012 0 0.015 0.0012 0 0.016 0.0012 0
0.017 0.0012 0 0.018 0.0012 0 0.019 0.0012 0 0.02
0.0012 0 0.021 0.0012 0 0.022 0.0013 0 0 0.0013
0 0.001 0.0013 0 0.002 0.0013 0 0.003 0.0013 0
0.004 0.0013 0 0.005 0.0013 0 0.006 0.0013 0 0.007
0.0013 0 0.008 0.0013 0 0.009 0.0013 0 0.01 0.0013
0 0.011 0.0013 0 0.012 0.0013 0 0.013 0.0013 0
0.014 0.0013 0 0.015 0.0013 0 0.016 0.0013 0 0.017
0.0013 0 0.018 0.0013 0 0.019 0.0013 0 0.02 0.0013
0 0.021 0.0013 0 0.022 0.0014 0 0 0.0014 0
0.001 0.0014 0 0.002 0.0014 0 0.003 0.0014 0 0.004
0.0014 0 0.005 0.0014 0 0.006 0.0014 0 0.007 0.0014
0 0.008 0.0014 0 0.009 0.0014 0 0.01 0.0014 0
0.011 0.0014 0 0.012 0.0014 0 0.013 0.0014 0 0.014
0.0014 0 0.015 0.0014 0 0.016 0.0014 0 0.017 0.0014
0 0.018 0.0014 0 0.019 0.0014 0 0.02 0.0014 0
0.021 0.0014 0 0.022 0.0015 0 0 0.0015 0 0.001
0.0015 0 0.002 0.0015 0 0.003 0.0015 0 0.004 0.0015
0 0.005 0.0015 0 0.006 0.0015 0 0.007 0.0015 0
0.008 0.0015 0 0.009 0.0015 0 0.01 0.0015 0 0.011
0.0015 0 0.012 0.0015 0 0.013 0.0015 0 0.014 0.0015
0 0.015 0.0015 0 0.016 0.0015 0 0.017 0.0015 0
0.018 0.0015 0 0.019 0.0015 0 0.02 0.0015 0 0.021
0.0015 0 0.022 0 0.022 0 0 0.022 0.001 0.0001
0.022 0.001 0.0001 0.022 0 0 0.022 0.002 0.0001 0.022
0.002 0 0.022 0.003 0.0001 0.022 0.003 0 0.022 0.004
0.0001 0.022 0.004 0 0.022 0.005 0.0001 0.022 0.005 0
0.022 0.006 0.0001 0.022 0.006 0 0.022 0.007 0.0001 0.022
0.007 0 0.022 0.008 0.0001 0.022 0.008 0 0.022 0.009
0.0001 0.022 0.009 0 0.022 0.01 0.0001 0.022 0.01 0
0.022 0.011 0.0001 0.022 0.011 0 0.022 0.012 0.0001 0.022
0.012 0 0.022 0.013 0.0001 0.022 0.013 0 0.022 0.014
0.0001 0.022 0.014 0 0.022 0.015 0.0001 0.022 0.015 0
0.022 0.016 0.0001 0.022 0.016 0 0.022 0.017 0.0001 0.022
0.017 0 0.022 0.018 0.0001 0.022 0.018 0 0.022 0.019
0.0001 0.022 0.019 0 0.022 0.02 0.0001 0.022 0.02 0
0.022 0.021 0.0001 0.022 0.021 0 0.022 0.022 0.0001 0.022
0.022 0.0002 0.022 0.001 0.0002 0.022 0 0.0002 0.022 0.002
0.0002 0.022 0.003 0.0002 0.022 0.004 0.0002 0.022 0.005 0.0002
0.022 0.006 0.0002 0.022 0.007 0.0002 0.022 0.008 0.0002 0.022
0.009 0.0002 0.022 0.01 0.0002 0.022 0.011 0.0002 0.022 0.012
0.0002 0.022 0.013 0.0002 0.022 0.014 0.0002 0.022 0.015 0.0002
0.022 0.016 0.0002 0.022 0.017 0.0002 0.022 0.018 0.0002 0.022
0.019 0.0002 0.022 0.02 0.0002 0.022 0.021 0.0002 0.022 0.022
0.0003 0.022 0.001 0.0003 0.022 0 0.0003 0.022 0.002 0.0003
0.022 0.003 0.0003 0.022 0.004 0.0003 0.022 0.005 0.0003 0.022
0.006 0.0003 0.022 0.007 0.0003 0.022 0.008 0.0003 0.022 0.009
0.0003 0.022 0.01 0.0003 0.022 0.011 0.0003 0.022 0.012 0.0003
0.022 0.013 0.0003 0.022 0.014 0.0003 0.022 0.015 0.0003 0.022
0.016 0.0003 0.022 0.017 0.0003 0.022 0.018 0.0003 0.022 0.019
0.0003 0.022 0.02 0.0003 0.022 0.021 0.0003 0.022 0.022 0.0004
0.022 0.001 0.0004 0.022 0 0.0004 0.022 0.002 0.0004 0.022
0.003 0.0004 0.022 0.004 0.0004 0.022 0.005 0.0004 0.022 0.006
0.0004 0.022 0.007 0.0004 0.022 0.008 0.0004 0.022 0.009 0.0004
0.022 0.01 0.0004 0.022 0.011 0.0004 0.022 0.012 0.0004 0.022
0.013 0.0004 0.022 0.014 0.0004 0.022 0.015 0.0004 0.022 0.016
0.0004 0.022 0.017 0.0004 0.022 0.018 0.0004 0.022 0.019 0.0004
0.022 0.02 0.0004 0.022 0.021 0.0004 0.022 0.022 0.0005 0.022
0.001 0.0005 0.022 0 0.0005 0.022 0.002 0.0005 0.022 0.003
0.0005 0.022 0.004 0.0005 0.022 0.005 0.0005 0.022 0.006 0.0005
0.022 0.007 0.0005 0.022 0.008 0.0005 0.022 0.009 0.0005 0.022
0.01 0.0005 0.022 0.011 0.0005 0.022 0.012 0.0005 0.022 0.013
0.0005 0.022 0.014 0.0005 0.022 0.015 0.0005 0.022 0.016 0.0005
0.022 0.017 0.0005 0.022 0.018 0.0005 0.022 0.019 0.0005 0.022
0.02 0.0005 0.022 0.021 0.0005 0.022 0.022 0.0006 0.022 0.001
0.0006 0.022 0 0.0006 0.022 0.002 0.0006 0.022 0.003 0.0006
0.022 0.004 0.0006 0.022 0.005 0.0006 0.022 0.006 0.0006 0.022
0.007 0.0006 0.022 0.008 0.0006 0.022 0.009 0.0006 0.022 0.01
0.0006 0.022 0.011 0.0006 0.022 0.012 0.0006 0.022 0.013 0.0006
0.022 0.014 0.0006 0.022 0.015 0.0006 0.022 0.016 0.0006 0.022
0.017 0.0006 0.022 0.018 0.0006 0.022 0.019 0.0006 0.022 0.02
0.0006 0.022 0.021 0.0006 0.022 0.022 0.0007 0.022 0.001 0.0007
0.022 0 0.0007 0.022 0.002 0.0007 0.022 0.003 0.0007 0.022
0.004 0.0007 0.022 0.005 0.0007 0.022 0.006 0.0007 0.022 0.007
0.0007 0.022 0.008 0.0007 0.022 0.009 0.0007 0.022 0.01 0.0007
0.022 0.011 0.0007 0.022 0.012 0.0007 0.022 0.013 0.0007 0.022
0.014 0.0007 0.022 0.015 0.0007 0.022 0.016 0.0007 0.022 0.017
0.0007 0.022 0.018 0.0007 0.022 0.019 0.0007 0.022 0.02 0.0007
0.022 0.021 0.0007 0.022 0.022 0.0008 0.022 0.001 0.0008 0.022
0 0.0008 0.022 0.002 0.0008 0.022 0.003 0.0008 0.022 0.004
0.0008 0.022 0.005 0.0008 0.022 0.006 0.0008 0.022 0.007 0.0008
0.022 0.008 0.0008 0.022 0.009 0.0008 0.022 0.01 0.0008 0.022
0.011 0.0008 0.022 0.012 0.0008 0.022 0.013 0.0008 0.022 0.014
0.0008 0.022 0.015 0.0008 0.022 0.016 0.0008 0.022 0.017 0.0008
0.022 0.018 0.0008 0.022 0.019 0.0008 0.022 0.02 0.0008 0.022
0.021 0.0008 0.022 0.022 0.0009 0.022 0.001 0.0009 0.022 0
0.0009 0.022 0.002 0.0009 0.022 0.003 0.0009 0.022 0.004 0.0009
0.022 0.005 0.0009 0.022 0.006 0.0009 0.022 0.007 0.0009 0.022
0.008 0.0009 0.022 0.009 0.0009 0.022 0.01 0.0009 0.022 0.011
0.0009 0.022 0.012 0.0009 0.022 0.013 0.0009 0.022 0.014 0.0009
0.022 0.015 0.0009 0.022 0.016 0.0009 0.022 0.017 0.0009 0.022
0.018 0.0009 0.022 0.019 0.0009 0.022 0.02 0.0009 0.022 0.021
0.0009 0.022 0.022 0.001 0.022 0.001 0.001 0.022 0 0.001
0.022 0.002 0.001 0.022 0.003 0.001 0.022 0.004 0.001 0.022
0.005 0.001 0.022 0.006 0.001 0.022 0.007 0.001 0.022 0.008
0.001 0.022 0.009 0.001 0.022 0.01 0.001 0.022 0.011 0.001
0.022 0.012 0.001 0.022 0.013 0.001 0.022 0.014 0.001 0.022
0.015 0.001 0.022 0.016 0.001 0.022 0.017 0.001 0.022 0.018
0.001 0.022 0.019 0.001 0.022 0.02 0.001 0.022 0.021 0.001
[...]
CELL_DATA 4260
FIELD attributes 4
patchID 1 4260 float
1 1 1 1 1 1 1 1 1 1 1
1 1 1 1 1 1 1 1 1 1
1 1 1 1 1 1 1 1 1 1
1 1 1 1 1 1 1 1 1 1
1 1 1 1 1 1 1 1 1 1
1 1 1 1 1 1 1 1 1 1
1 1 1 1 1 1 1 1 1 1
1 1 1 1 1 1 1 1 1 1
1 1 1 1 1 1 1 1 1 1
1 1 1 1 1 1 1 1 1 1
1 1 1 1 1 1 1 1 1 1
1 1 1 1 1 1 1 1 1 1
1 1 1 1 1 1 1 1 1 1
1 1 1 1 1 1 1 1 1 1
1 1 1 1 1 1 1 1 1 1
1 1 1 1 1 1 1 1 1 1
1 1 1 1 1 1 1 1 1 1
1 1 1 1 1 1 1 1 1 1
1 1 1 1 1 1 1 1 1 1
1 1 1 1 1 1 1 1 1 1
1 1 1 1 1 1 1 1 1 1
1 1 1 1 1 1 1 1 1 1
1 1 1 1 1 1 1 1 1 1
1 1 1 1 1 1 1 1 1 1
1 1 1 1 1 1 1 1 1 1
1 1 1 1 1 1 1 1 1 1
1 1 1 1 1 1 1 1 1 1
1 1 1 1 1 1 1 1 1 1
1 1 1 1 1 1 1 1 1 1
1 1 1 1 1 1 1 1 1 1
1 1 1 1 1 1 1 1 1 1
1 1 1 1 1 1 1 1 1 1
1 1 1 1 1 1 1 1 1 1
1 1 1 1 1 1 1 1 1 1
1 1 1 1 1 1 1 1 1 1
1 1 1 1 1 1 1 1 1 1
1 1 1 1 1 1 1 1 1 1
1 1 1 1 1 1 1 1 1 1
1 1 1 1 1 1 1 1 1 1
1 1 1 1 1 1 1 1 1 1
1 1 1 1 1 1 1 1 1 1
1 1 1 1 1 1 1 1 1 1
1 1 1 1 1 1 1 1 1 1
1 1 1 1 1 1 1 1 1 1
1 1 1 1 1 1 1 1 1 1
1 1 1 1 1 1 1 1 1 1
1 1 1 1 1 1 1 1 1 1
1 1 1 1 1 1 1 1 1 1
1 1 1 1 1 1 1 1 1 1
1 1 1 1 1 1 1 1 1 1
1 1 1 1 1 1 1 1 1 1
1 1 1 1 1 1 1 1 1 1
1 1 1 1 1 1 1 1 1 1
1 1 1 1 1 1 1 1 1 1
1 1 1 1 1 1 1 1 1 1
1 1 1 1 1 1 1 1 1 1
1 1 1 1 1 1 1 1 1 1
1 1 1 1 1 1 1 1 1 1
1 1 1 1 1 1 1 1 1 1
1 1 1 1 1 1 1 1 1 1
1 1 1 1 1 1 1 1 1 1
1 1 1 1 1 1 1 1 1 1
1 1 1 1 1 1 1 1 1 1
1 1 1 1 1 1 1 1 1 1
1 1 1 1 1 1 1 1 1 1
1 1 1 1 1 1 1 1 1 1
1 1 1 1 1 1 1 1 1 1
1 1 1 1 1 1 1 1 1 1
1 1 1 1 1 1 1 1 1 1
1 1 1 1 1 1 1 1 1 1
1 1 1 1 1 1 1 1 1 1
1 1 1 1 1 1 1 1 1 1
1 1 1 1 1 1 1 1 1 1
1 1 1 1 1 1 1 1 1 1
1 1 1 1 1 1 1 1 1 1
1 1 1 1 1 1 1 1 1 1
1 1 1 1 1 1 1 1 1 1
1 1 1 1 1 1 1 1 1 1
1 1 1 1 1 1 1 1 1 1
1 1 1 1 1 1 1 1 1 1
1 1 1 1 1 1 1 1 1 1
1 1 1 1 1 1 1 1 1 1
1 1 1 1 1 1 1 1 1 1
1 1 1 1 1 1 1 1 1 1
1 1 1 1 1 1 1 1 1 1
1 1 1 1 1 1 1 1 1 1
1 1 1 1 1 1 1 1 1 1
1 1 1 1 1 1 1 1 1 1
1 1 1 1 1 1 1 1 1 1
1 1 1 1 1 1 1 1 1 1
1 1 1 1 1 1 1 1 1 1
1 1 1 1 1 1 1 1 1 1
1 1 1 1 1 1 1 1 1 1
1 1 1 1 1 1 1 1 1 1
1 1 1 1 1 1 1 1 1 1
1 1 1 1 1 1 1 1 1 1
1 1 1 1 1 1 1 1 1 1
1 1 1 1 1 1 1 1 1 1
1 1 1 1 1 1 1 1 1 1
1 1 1 1 1 1 1 1 1 1
1 1 1 1 1 1 1 1 1 1
1 1 1 1 1 1 1 1 1 1
1 1 1 1 1 1 1 1 1 1
1 1 1 1 1 1 1 1 1 1
1 1 1 1 1 1 1 1 1 1
1 1 1 1 1 1 1 1 1 1
1 1 1 1 1 1 1 1 1 1
1 1 1 1 1 1 1 1 1 1
1 1 1 1 1 1 1 1 1 1
1 1 1 1 1 1 1 1 1 1
1 1 1 1 1 1 1 1 1 1
1 1 1 1 1 1 1 1 1 1
1 1 1 1 1 1 1 1 1 1
1 1 1 1 1 1 1 1 1 1
1 1 1 1 1 1 1 1 1 1
1 1 1 1 1 1 1 1 1 1
1 1 1 1 1 1 1 1 1 1
1 1 1 1 1 1 1 1 1 1
1 1 1 1 1 1 1 1 1 1
1 1 1 1 1 1 1 1 1 1
1 1 1 1 1 1 1 1 1 1
1 1 1 1 1 1 1 1 1 1
1 1 1 1 1 1 1 1 1 1
1 1 1 1 1 1 1 1 1 1
1 1 1 1 1 1 1 1 1 1
1 1 1 1 1 1 1 1 1 1
1 1 1 1 1 1 1 1 1 1
1 1 1 1 1 1 1 1 1 1
1 1 1 1 1 1 1 1 1 1
1 1 1 1 1 1 1 1 1 1
1 1 1 1 1 1 1 1 1 1
1 1 1 1 1 1 1 1 1 1
1 1 1 1 1 1 1 1 1 1
1 1 1 1 1 1 1 1 1 1
1 1 1 1 1 1 1 1 1 1
1 1 1 1 1 1 1 1 1 1
1 1 1 1 1 1 1 1 1 1
1 1 1 1 1 1 1 1 1 1
1 1 1 1 1 1 1 1 1 1
1 1 1 1 1 1 1 1 1 1
1 1 1 1 1 1 1 1 1 1
1 1 1 1 1 1 1 1 1 1
1 1 1 1 1 1 1 1 1 1
1 1 1 1 1 1 1 1 1 1
1 1 1 1 1 1 1 1 1 1
1 1 1 1 1 1 1 1 1 1
1 1 1 1 1 1 1 1 1 1
1 1 1 1 1 1 1 1 1 1
1 1 1 1 1 1 1 1 1 1
1 1 1 1 1 1 1 1 1 1
1 1 1 1 1 1 1 1 1 1
1 1 1 1 1 1 1 1 1 1
1 1 1 1 1 1 1 1 1 1
1 1 1 1 1 1 1 1 1 1
1 1 1 1 1 1 1 1 1 1
1 1 1 1 1 1 1 1 1 1
1 1 1 1 1 1 1 1 1 1
1 1 1 1 1 1 1 1 1 1
1 1 1 1 1 1 1 1 1 1
1 1 1 1 1 1 1 1 1 1
1 1 1 1 1 1 1 1 1 1
1 1 1 1 1 1 1 1 1 1
1 1 1 1 1 1 1 1 1 1
1 1 1 1 1 1 1 1 1 1
1 1 1 1 1 1 1 1 1 1
1 1 1 1 1 1 1 1 1 1
1 1 1 1 1 1 1 1 1 1
1 1 1 1 1 1 1 1 1 1
1 1 1 1 1 1 1 1 1 1
1 1 1 1 1 1 1 1 1 1
1 1 1 1 1 1 1 1 1 1
1 1 1 1 1 1 1 1 1 1
1 1 1 1 1 1 1 1 1 1
1 1 1 1 1 1 1 1 1 1
1 1 1 1 1 1 1 1 1 1
1 1 1 1 1 1 1 1 1 1
1 1 1 1 1 1 1 1 1 1
1 1 1 1 1 1 1 1 1 1
1 1 1 1 1 1 1 1 1 1
1 1 1 1 1 1 1 1 1 1
1 1 1 1 1 1 1 1 1 1
1 1 1 1 1 1 1 1 1 1
1 1 1 1 1 1 1 1 1 1
1 1 1 1 1 1 1 1 1 1
1 1 1 1 1 1 1 1 1 1
1 1 1 1 1 1 1 1 1 1
1 1 1 1 1 1 1 1 1 1
1 1 1 1 1 1 1 1 1 1
1 1 1 1 1 1 1 1 1 1
1 1 1 1 1 1 1 1 1 1
1 1 1 1 1 1 1 1 1 1
1 1 1 1 1 1 1 1 1 1
1 1 1 1 1 1 1 1 1 1
1 1 1 1 1 1 1 1 1 1
1 1 1 1 1 1 1 1 1 1
1 1 1 1 1 1 1 1 1 1
1 1 1 1 1 1 1 1 1 1
1 1 1 1 1 1 1 1 1 1
1 1 1 1 1 1 1 1 1 1
1 1 1 1 1 1 1 1 1 1
1 1 1 1 1 1 1 1 1 1
1 1 1 1 1 1 1 1 1 1
1 1 1 1 1 1 1 1 1 1
1 1 1 1 1 1 1 1 1 1
1 1 1 1 1 1 1 1 1 1
1 1 1 1 1 1 1 1 1 1
1 1 1 1 1 1 1 1 1 1
1 1 1 1 1 1 1 1 1 1
1 1 1 1 1 1 1 1 1 1
1 1 1 1 1 1 1 1 1 1
1 1 1 1 1 1 1 1 1 1
1 1 1 1 1 1 1 1 1 1
1 1 1 1 1 1 1 1 1 1
1 1 1 1 1 1 1 1 1 1
1 1 1 1 1 1 1 1 1 1
1 1 1 1 1 1 1 1 1 1
1 1 1 1 1 1 1 1 1 1
1 1 1 1 1 1 1 1 1 1
1 1 1 1 1 1 1 1 1 1
1 1 1 1 1 1 1 1 1 1
1 1 1 1 1 1 1 1 1 1
1 1 1 1 1 1 1 1 1 1
1 1 1 1 1 1 1 1 1 1
1 1 1 1 1 1 1 1 1 1
1 1 1 1 1 1 1 1 1 1
1 1 1 1 1 1 1 1 1 1
1 1 1 1 1 1 1 1 1 1
1 1 1 1 1 1 1 1 1 1
1 1 1 1 1 1 1 1 1 1
1 1 1 1 1 1 1 1 1 1
1 1 1 1 1 1 1 1 1 1
1 1 1 1 1 1 1 1 1 1
1 1 1 1 1 1 1 1 1 1
1 1 1 1 1 1 1 1 1 1
1 1 1 1 1 1 1 1 1 1
1 1 1 1 1 1 1 1 1 1
1 1 1 1 1 1 1 1 1 1
1 1 1 1 1 1 1 1 1 1
1 1 1 1 1 1 1 1 1 1
1 1 1 1 1 1 1 1 1 1
1 1 1 1 1 1 1 1 1 1
1 1 1 1 1 1 1 1 1 1
1 1 1 1 1 1 1 1 1 1
1 1 1 1 1 1 1 1 1 1
1 1 1 1 1 1 1 1 1 1
1 1 1 1 1 1 1 1 1 1
1 1 1 1 1 1 1 1 1 1
1 1 1 1 1 1 1 1 1 1
1 1 1 1 1 1 1 1 1 1
1 1 1 1 1 1 1 1 1 1
1 1 1 1 1 1 1 1 1 1
1 1 1 1 1 1 1 1 1 1
1 1 1 1 1 1 1 1 1 1
1 1 1 1 1 1 1 1 1 1
1 1 1 1 1 1 1 1 1 1
1 1 1 1 1 1 1 1 1 1
1 1 1 1 1 1 1 1 1 1
1 1 1 1 1 1 1 1 1 1
1 1 1 1 1 1 1 1 1 1
1 1 1 1 1 1 1 1 1 1
1 1 1 1 1 1 1 1 1 1
1 1 1 1 1 1 1 1 1 1
1 1 1 1 1 1 1 1 1 1
1 1 1 1 1 1 1 1 1 1
1 1 1 1 1 1 1 1 1 1
1 1 1 1 1 1 1 1 1 1
1 1 1 1 1 1 1 1 1 1
1 1 1 1 1 1 1 1 1 1
1 1 1 1 1 1 1 1 1 1
1 1 1 1 1 1 1 1 1 1
1 1 1 1 1 1 1 1 1 1
1 1 1 1 1 1 1 1 1 1
1 1 1 1 1 1 1 1 1 1
1 1 1 1 1 1 1 1 1 1
1 1 1 1 1 1 1 1 1 1
1 1 1 1 1 1 1 1 1 1
1 1 1 1 1 1 1 1 1 1
1 1 1 1 1 1 1 1 1 1
1 1 1 1 1 1 1 1 1 1
1 1 1 1 1 1 1 1 1 1
1 1 1 1 1 1 1 1 1 1
1 1 1 1 1 1 1 1 1 1
1 1 1 1 1 1 1 1 1 1
1 1 1 1 1 1 1 1 1 1
1 1 1 1 1 1 1 1 1 1
1 1 1 1 1 1 1 1 1 1
1 1 1 1 1 1 1 1 1 1
1 1 1 1 1 1 1 1 1 1
1 1 1 1 1 1 1 1 1 1
1 1 1 1 1 1 1 1 1 1
1 1 1 1 1 1 1 1 1 1
1 1 1 1 1 1 1 1 1 1
1 1 1 1 1 1 1 1 1 1
1 1 1 1 1 1 1 1 1 1
1 1 1 1 1 1 1 1 1 1
1 1 1 1 1 1 1 1 1 1
1 1 1 1 1 1 1 1 1 1
1 1 1 1 1 1 1 1 1 1
1 1 1 1 1 1 1 1 1 1
1 1 1 1 1 1 1 1 1 1
1 1 1 1 1 1 1 1 1 1
1 1 1 1 1 1 1 1 1 1
1 1 1 1 1 1 1 1 1 1
1 1 1 1 1 1 1 1 1 1
1 1 1 1 1 1 1 1 1 1
1 1 1 1 1 1 1 1 1 1
1 1 1 1 1 1 1 1 1 1
1 1 1 1 1 1 1 1 1 1
1 1 1 1 1 1 1 1 1 1
1 1 1 1 1 1 1 1 1 1
1 1 1 1 1 1 1 1 1 1
1 1 1 1 1 1 1 1 1 1
1 1 1 1 1 1 1 1 1 1
1 1 1 1 1 1 1 1 1 1
1 1 1 1 1 1 1 1 1 1
1 1 1 1 1 1 1 1 1 1
1 1 1 1 1 1 1 1 1 1
1 1 1 1 1 1 1 1 1 1
1 1 1 1 1 1 1 1 1 1
1 1 1 1 1 1 1 1 1 1
1 1 1 1 1 1 1 1 1 1
1 1 1 1 1 1 1 1 1 1
1 1 1 1 1 1 1 1 1 1
1 1 1 1 1 1 1 1 1 1
1 1 1 1 1 1 1 1 1 1
1 1 1 1 1 1 1 1 1 1
1 1 1 1 1 1 1 1 1 1
1 1 1 1 1 1 1 1 1 1
1 1 1 1 1 1 1 1 1 1
1 1 1 1 1 1 1 1 1 1
1 1 1 1 1 1 1 1 1 1
1 1 1 1 1 1 1 1 1 1
1 1 1 1 1 1 1 1 1 1
1 1 1 1 1 1 1 1 1 1
1 1 1 1 1 1 1 1 1 1
1 1 1 1 1 1 1 1 1 1
1 1 1 1 1 1 1 1 1 1
1 1 1 1 1 1 1 1 1 1
1 1 1 1 1 1 1 1 1 1
1 1 1 1 1 1 1 1 1 1
1 1 1 1 1 1 1 1 1 1
1 1 1 1 1 1 1 1 1 1
1 1 1 1 1 1 1 1 1 1
1 1 1 1 1 1 1 1 1 1
1 1 1 1 1 1 1 1 1 1
1 1 1 1 1 1 1 1 1 1
1 1 1 1 1 1 1 1 1 1
1 1 1 1 1 1 1 1 1 1
1 1 1 1 1 1 1 1 1 1
1 1 1 1 1 1 1 1 1 1
1 1 1 1 1 1 1 1 1 1
1 1 1 1 1 1 1 1 1 1
1 1 1 1 1 1 1 1 1 1
1 1 1 1 1 1 1 1 1 1
1 1 1 1 1 1 1 1 1 1
1 1 1 1 1 1 1 1 1 1
1 1 1 1 1 1 1 1 1 1
1 1 1 1 1 1 1 1 1 1
1 1 1 1 1 1 1 1 1 1
1 1 1 1 1 1 1 1 1 1
1 1 1 1 1 1 1 1 1 1
1 1 1 1 1 1 1 1 1 1
1 1 1 1 1 1 1 1 1 1
1 1 1 1 1 1 1 1 1 1
1 1 1 1 1 1 1 1 1 1
1 1 1 1 1 1 1 1 1 1
1 1 1 1 1 1 1 1 1 1
1 1 1 1 1 1 1 1 1 1
1 1 1 1 1 1 1 1 1 1
1 1 1 1 1 1 1 1 1 1
1 1 1 1 1 1 1 1 1 1
1 1 1 1 1 1 1 1 1 1
1 1 1 1 1 1 1 1 1 1
1 1 1 1 1 1 1 1 1 1
1 1 1 1 1 1 1 1 1 1
1 1 1 1 1 1 1 1 1 1
1 1 1 1 1 1 1 1 1 1
1 1 1 1 1 1 1 1 1 1
1 1 1 1 1 1 1 1 1 1
1 1 1 1 1 1 1 1 1 1
1 1 1 1 1 1 1 1 1 1
1 1 1 1 1 1 1 1 1 1
1 1 1 1 1 1 1 1 1 1
1 1 1 1 1 1 1 1 1 1
1 1 1 1 1 1 1 1 1 1
1 1 1 1 1 1 1 1 1 1
1 1 1 1 1 1 1 1 1 1
1 1 1 1 1 1 1 1 1 1
1 1 1 1 1 1 1 1 1 1
1 1 1 1 1 1 1 1 1 1
1 1 1 1 1 1 1 1 1 1
1 1 1 1 1 1 1 1 1 1
1 1 1 1 1 1 1 1 1 1
1 1 1 1 1 1 1 1 1 1
1 1 1 1 1 1 1 1 1 1
1 1 1 1 1 1 1 1 1 1
1 1 1 1 1 1 1 1 1 1
1 1 1 1 1 1 1 1 1 1
1 1 1 1 1 1 1 1 1 1
1 1 1 1 1 1 1 1 1 1
1 1 1 1 1 1 1 1 1 1
1 1 1 1 1 1 1 1 1 1
1 1 1 1 1 1 1 1 1 1
1 1 1 1 1 1 1 1 1 1
1 1 1 1 1 1 1 1 1 1
1 1 1 1 1 1 1 1 1 1
1 1 1 1 1 1 1 1 1 1
1 1 1 1 1 1 1 1 1 1
1 1 1 1 1 1 1 1 1 1
1 1 1 1 1 1 1 1 1 1
1 1 1 1 1 1 1 1 1 1
1 1 1 1 1 1 1 1 1 1
1 1 1 1 1 1 1 1 1 1
1 1 1 1 1 1 1 1 1 1
1 1 1 1 1 1 1 1 1 1
1 1 1 1 1 1 1 1 1 1
1 1 1 1 1 1 1 1 1 1
1 1 1 1 1 1 1 1 1 1
1 1 1 1 1 1 1 1 1 1
1 1 1 1 1 1 1 1 1 1
1 1 1 1 1 1 1 1 1 1
1 1 1 1 1 1 1 1 1 1
1 1 1 1 1 1 1 1 1 1
1 1 1 1 1 1 1 1 1 1
1 1 1 1 1 1 1 1 1 1
1 1 1 1 1 1 1 1 1 
T 1 4260 float
353.19 353.191 353.194 353.196 353.2 353.203 353.207 353.21 353.214 353.217 353.22
353.224 353.227 353.229 353.232 353.234 353.236 353.238 353.239 353.24 353.241
353.241 353.19 353.191 353.194 353.196 353.2 353.203 353.207 353.21 353.214
353.217 353.22 353.224 353.227 353.229 353.232 353.234 353.236 353.238 353.239
353.24 353.241 353.241 353.19 353.191 353.194 353.196 353.2 353.203 353.207
353.21 353.214 353.217 353.22 353.224 353.227 353.229 353.232 353.234 353.236
353.238 353.239 353.24 353.241 353.241 353.19 353.191 353.194 353.196 353.2
353.203 353.207 353.21 353.214 353.217 353.22 353.224 353.227 353.229 353.232
353.234 353.236 353.238 353.239 353.24 353.241 353.242 353.19 353.191 353.194
353.196 353.2 353.203 353.207 353.21 353.214 353.217 353.22 353.224 353.227
353.229 353.232 353.234 353.236 353.238 353.239 353.241 353.241 353.242 353.19
353.191 353.194 353.196 353.2 353.203 353.207 353.21 353.214 353.217 353.22
353.224 353.227 353.229 353.232 353.234 353.236 353.238 353.239 353.241 353.241
353.242 353.19 353.191 353.194 353.196 353.2 353.203 353.207 353.21 353.214
353.217 353.22 353.224 353.227 353.229 353.232 353.234 353.236 353.238 353.239
353.241 353.241 353.242 353.19 353.191 353.194 353.196 353.2 353.203 353.207
353.21 353.214 353.217 353.22 353.224 353.227 353.229 353.232 353.234 353.236
353.238 353.24 353.241 353.241 353.242 353.19 353.191 353.194 353.197 353.2
353.203 353.207 353.21 353.214 353.217 353.22 353.224 353.227 353.229 353.232
353.234 353.236 353.238 353.24 353.241 353.241 353.242 353.19 353.191 353.194
353.197 353.2 353.203 353.207 353.21 353.214 353.217 353.221 353.224 353.227
353.229 353.232 353.234 353.236 353.238 353.24 353.241 353.241 353.242 353.19
353.191 353.194 353.197 353.2 353.203 353.207 353.21 353.214 353.217 353.221
353.224 353.227 353.23 353.232 353.234 353.237 353.238 353.24 353.241 353.241
353.242 353.19 353.191 353.194 353.197 353.2 353.203 353.207 353.21 353.214
353.217 353.221 353.224 353.227 353.23 353.232 353.234 353.237 353.238 353.24
353.241 353.242 353.242 353.19 353.191 353.194 353.197 353.2 353.203 353.207
353.21 353.214 353.217 353.221 353.224 353.227 353.23 353.232 353.235 353.237
353.238 353.24 353.241 353.242 353.242 353.19 353.191 353.194 353.197 353.2
353.203 353.207 353.211 353.214 353.217 353.221 353.224 353.227 353.23 353.232
353.235 353.237 353.238 353.24 353.241 353.242 353.242 353.19 353.191 353.194
353.197 353.2 353.203 353.207 353.211 353.214 353.218 353.221 353.224 353.227
353.23 353.232 353.235 353.237 353.238 353.24 353.241 353.242 353.242 353.19
353.191 353.194 353.196 353.2 353.203 353.207 353.21 353.214 353.217 353.22
353.224 353.227 353.229 353.232 353.234 353.236 353.238 353.239 353.24 353.241
353.241 353.19 353.191 353.194 353.196 353.2 353.203 353.207 353.21 353.214
353.217 353.22 353.224 353.227 353.229 353.232 353.234 353.236 353.238 353.239
353.24 353.241 353.241 353.19 353.191 353.194 353.196 353.2 353.203 353.207
353.21 353.214 353.217 353.22 353.224 353.227 353.229 353.232 353.234 353.236
353.238 353.239 353.24 353.241 353.241 353.19 353.191 353.194 353.196 353.2
353.203 353.207 353.21 353.214 353.217 353.22 353.224 353.227 353.229 353.232
353.234 353.236 353.238 353.239 353.24 353.241 353.241 353.19 353.191 353.194
353.196 353.2 353.203 353.207 353.21 353.214 353.217 353.22 353.224 353.227
353.229 353.232 353.234 353.236 353.238 353.239 353.241 353.241 353.242 353.19
353.191 353.194 353.196 353.2 353.203 353.207 353.21 353.214 353.217 353.22
353.224 353.227 353.229 353.232 353.234 353.236 353.238 353.239 353.241 353.241
353.242 353.19 353.191 353.194 353.196 353.2 353.203 353.207 353.21 353.214
353.217 353.22 353.224 353.227 353.229 353.232 353.234 353.236 353.238 353.239
353.241 353.241 353.242 353.19 353.191 353.194 353.196 353.2 353.203 353.207
353.21 353.214 353.217 353.22 353.224 353.227 353.229 353.232 353.234 353.236
353.238 353.24 353.241 353.241 353.242 353.19 353.191 353.194 353.196 353.2
353.203 353.207 353.21 353.214 353.217 353.22 353.224 353.227 353.229 353.232
353.234 353.236 353.238 353.24 353.241 353.241 353.242 353.19 353.191 353.194
353.197 353.2 353.203 353.207 353.21 353.214 353.217 353.221 353.224 353.227
353.229 353.232 353.234 353.236 353.238 353.24 353.241 353.241 353.242 353.19
353.191 353.194 353.197 353.2 353.203 353.207 353.21 353.214 353.217 353.221
353.224 353.227 353.23 353.232 353.234 353.237 353.238 353.24 353.241 353.241
353.242 353.19 353.191 353.194 353.197 353.2 353.203 353.207 353.21 353.214
353.217 353.221 353.224 353.227 353.23 353.232 353.234 353.237 353.238 353.24
353.241 353.242 353.242 353.19 353.191 353.194 353.197 353.2 353.203 353.207
353.21 353.214 353.217 353.221 353.224 353.227 353.23 353.232 353.235 353.237
353.238 353.24 353.241 353.242 353.242 353.19 353.191 353.194 353.197 353.2
353.203 353.207 353.211 353.214 353.217 353.221 353.224 353.227 353.23 353.232
353.235 353.237 353.238 353.24 353.241 353.242 353.242 353.19 353.191 353.194
353.197 353.2 353.203 353.207 353.211 353.214 353.218 353.221 353.224 353.227
353.23 353.232 353.235 353.237 353.238 353.24 353.241 353.242 353.242 353.19
353.19 353.19 353.189 353.189 353.189 353.188 353.188 353.188 353.187 353.187
353.187 353.187 353.187 353.187 353.186 353.186 353.186 353.186 353.186 353.186
353.186 353.186 353.186 353.186 353.186 353.186 353.186 353.186 353.187 353.187
353.187 353.187 353.187 353.187 353.188 353.188 353.188 353.189 353.189 353.189
353.19 353.19 353.19 353.19 353.19 353.19 353.189 353.189 353.189 353.188
353.188 353.188 353.187 353.187 353.187 353.187 353.187 353.187 353.186 353.186
353.186 353.186 353.186 353.186 353.186 353.186 353.186 353.186 353.186 353.186
353.186 353.186 353.187 353.187 353.187 353.187 353.187 353.187 353.188 353.188
353.188 353.189 353.189 353.189 353.19 353.19 353.19 353.19 353.19 353.19
353.189 353.189 353.189 353.188 353.188 353.188 353.187 353.187 353.187 353.187
353.187 353.186 353.186 353.186 353.186 353.186 353.186 353.186 353.186 353.186
353.186 353.186 353.186 353.186 353.186 353.186 353.186 353.187 353.187 353.187
353.187 353.187 353.188 353.188 353.188 353.189 353.189 353.189 353.19 353.19
353.19 353.19 353.19 353.19 353.189 353.189 353.189 353.188 353.188 353.188
353.187 353.187 353.187 353.187 353.187 353.186 353.186 353.186 353.186 353.186
353.186 353.186 353.186 353.186 353.186 353.186 353.186 353.186 353.186 353.186
353.186 353.187 353.187 353.187 353.187 353.187 353.188 353.188 353.188 353.189
353.189 353.189 353.19 353.19 353.19 353.19 353.19 353.19 353.189 353.189
353.188 353.188 353.188 353.188 353.187 353.187 353.187 353.187 353.186 353.186
353.186 353.186 353.186 353.186 353.186 353.186 353.186 353.186 353.186 353.186
353.186 353.186 353.186 353.186 353.186 353.186 353.187 353.187 353.187 353.187
353.188 353.188 353.188 353.188 353.189 353.189 353.19 353.19 353.19 353.19
353.19 353.19 353.189 353.189 353.188 353.188 353.188 353.187 353.187 353.187
353.187 353.187 353.186 353.186 353.186 353.186 353.186 353.186 353.186 353.186
353.186 353.186 353.186 353.186 353.186 353.186 353.186 353.186 353.186 353.186
353.187 353.187 353.187 353.187 353.187 353.188 353.188 353.188 353.189 353.189
353.19 353.19 353.19 353.19 353.19 353.19 353.189 353.189 353.188 353.188
353.188 353.187 353.187 353.187 353.187 353.186 353.186 353.186 353.186 353.186
353.186 353.186 353.186 353.186 353.186 353.186 353.186 353.186 353.186 353.186
353.186 353.186 353.186 353.186 353.186 353.187 353.187 353.187 353.187 353.188
353.188 353.188 353.189 353.189 353.19 353.19 353.19 353.19 353.19 353.189
353.189 353.189 353.188 353.188 353.187 353.187 353.187 353.187 353.187 353.186
353.186 353.186 353.186 353.186 353.186 353.186 353.186 353.186 353.186 353.186
353.186 353.186 353.186 353.186 353.186 353.186 353.186 353.186 353.186 353.187
353.187 353.187 353.187 353.187 353.188 353.188 353.189 353.189 353.189 353.19
353.19 353.19 353.19 353.189 353.189 353.188 353.188 353.188 353.187 353.187
353.187 353.187 353.186 353.186 353.186 353.186 353.186 353.186 353.186 353.186
353.186 353.186 353.186 353.186 353.186 353.186 353.186 353.186 353.186 353.186
353.186 353.186 353.186 353.186 353.187 353.187 353.187 353.187 353.188 353.188
353.188 353.189 353.189 353.19 353.19 353.19 353.19 353.189 353.189 353.188
353.188 353.187 353.187 353.187 353.187 353.186 353.186 353.186 353.186 353.186
353.186 353.186 353.186 353.185 353.185 353.185 353.185 353.185 353.185 353.185
353.185 353.186 353.186 353.186 353.186 353.186 353.186 353.186 353.186 353.187
353.187 353.187 353.187 353.188 353.188 353.189 353.189 353.19 353.19 353.19
353.19 353.189 353.189 353.188 353.188 353.187 353.187 353.187 353.187 353.186
353.186 353.186 353.186 353.186 353.186 353.185 353.185 353.185 353.185 353.185
353.185 353.185 353.185 353.185 353.185 353.185 353.185 353.186 353.186 353.186
353.186 353.186 353.186 353.187 353.187 353.187 353.187 353.188 353.188 353.189
353.189 353.19 353.19 353.19 353.19 353.189 353.188 353.188 353.188 353.187
353.187 353.187 353.186 353.186 353.186 353.186 353.186 353.185 353.185 353.185
353.185 353.185 353.185 353.185 353.185 353.185 353.185 353.185 353.185 353.185
353.185 353.185 353.185 353.186 353.186 353.186 353.186 353.186 353.187 353.187
353.187 353.188 353.188 353.188 353.189 353.19 353.19 353.19 353.19 353.189
353.188 353.188 353.187 353.187 353.187 353.186 353.186 353.186 353.186 353.185
353.185 353.185 353.185 353.185 353.185 353.185 353.185 353.185 353.185 353.185
353.185 353.185 353.185 353.185 353.185 353.185 353.185 353.185 353.185 353.186
353.186 353.186 353.186 353.186 353.187 353.187 353.188 353.188 353.189 353.19
353.19 353.19 353.19 353.189 353.188 353.188 353.187 353.186 353.186 353.186
353.186 353.186 353.186 353.185 353.185 353.185 353.185 353.185 353.185 353.185
353.185 353.185 353.185 353.185 353.185 353.185 353.185 353.185 353.185 353.185
353.185 353.185 353.185 353.186 353.186 353.186 353.186 353.186 353.186 353.187
353.188 353.188 353.189 353.189 353.19 353.19 353.189 353.188 353.188 353.187
353.187 353.186 353.186 353.186 353.186 353.186 353.185 353.185 353.185 353.185
353.185 353.185 353.185 353.184 353.184 353.185 353.185 353.185 353.185 353.184
353.184 353.185 353.185 353.185 353.185 353.185 353.185 353.185 353.185 353.186
353.186 353.186 353.186 353.187 353.187 353.188 353.188 353.189 353.19 353.241
353.241 353.241 353.241 353.241 353.241 353.241 353.241 353.241 353.241 353.241
353.241 353.241 353.241 353.241 353.241 353.241 353.241 353.241 353.241 353.241
353.241 353.241 353.241 353.241 353.241 353.241 353.241 353.241 353.241 353.241
353.241 353.241 353.241 353.241 353.241 353.241 353.241 353.241 353.241 353.241
353.241 353.241 353.241 353.241 353.241 353.241 353.241 353.241 353.241 353.241
353.241 353.241 353.241 353.241 353.241 353.241 353.241 353.241 353.241 353.241
353.241 353.241 353.241 353.241 353.241 353.241 353.241 353.241 353.241 353.241
353.241 353.241 353.241 353.241 353.241 353.241 353.241 353.241 353.241 353.241
353.241 353.241 353.241 353.241 353.241 353.241 353.241 353.241 353.241 353.241
353.241 353.241 353.241 353.241 353.241 353.241 353.241 353.241 353.241 353.241
353.241 353.241 353.241 353.241 353.241 353.241 353.241 353.241 353.241 353.241
353.241 353.241 353.241 353.241 353.241 353.241 353.241 353.241 353.241 353.241
353.241 353.241 353.241 353.241 353.241 353.241 353.241 353.241 353.241 353.241