# vtk DataFile Version 2.0
abpSides
ASCII
DATASET POLYDATA
POINTS 4812 float
0.0039544 0 0 0.0039544 0.0005 0 0.0040044 0.0005 0 0.0040044 0
0 0.0039544 0.001 0 0.0040044 0.001 0 0.0039544 0.003 0
0.0039544 0.0035 0 0.0040044 0.0035 0 0.0040044 0.003 0 0.0039544
0.004 0 0.0040044 0.004 0 0.0039544 0.006 0 0.0039544 0.0065
0 0.0040044 0.0065 0 0.0040044 0.006 0 0.0039544 0.007 0
0.0040044 0.007 0 0.0039544 0.009 0 0.0039544 0.0095 0 0.0040044
0.0095 0 0.0040044 0.009 0 0.0039544 0.01 0 0.0040044 0.01
0 0.0039544 0.012 0 0.0039544 0.0125 0 0.0040044 0.0125 0
0.0040044 0.012 0 0.0039544 0.013 0 0.0040044 0.013 0 0.0039544
0.015 0 0.0039544 0.0155 0 0.0040044 0.0155 0 0.0040044 0.015
0 0.0039544 0.016 0 0.0040044 0.016 0 0.0039544 0.018 0
0.0039544 0.0185 0 0.0040044 0.0185 0 0.0040044 0.018 0 0.0039544
0.019 0 0.0040044 0.019 0 0.0039544 0.021 0 0.0039544 0.0215
0 0.0040044 0.0215 0 0.0040044 0.021 0 0.0039544 0.022 0
0.0040044 0.022 0 0.0040544 0.0005 0 0.0040544 0 0 0.0040544
0.001 0 0.0040544 0.0035 0 0.0040544 0.003 0 0.0040544 0.004
0 0.0040544 0.0065 0 0.0040544 0.006 0 0.0040544 0.007 0
0.0040544 0.0095 0 0.0040544 0.009 0 0.0040544 0.01 0 0.0040544
0.0125 0 0.0040544 0.012 0 0.0040544 0.013 0 0.0040544 0.0155
0 0.0040544 0.015 0 0.0040544 0.016 0 0.0040544 0.0185 0
0.0040544 0.018 0 0.0040544 0.019 0 0.0040544 0.0215 0 0.0040544
0.021 0 0.0040544 0.022 0 0.0041044 0.0005 0 0.0041044 0
0 0.0041044 0.001 0 0.0041044 0.0035 0 0.0041044 0.003 0
0.0041044 0.004 0 0.0041044 0.0065 0 0.0041044 0.006 0 0.0041044
0.007 0 0.0041044 0.0095 0 0.0041044 0.009 0 0.0041044 0.01
0 0.0041044 0.0125 0 0.0041044 0.012 0 0.0041044 0.013 0
0.0041044 0.0155 0 0.0041044 0.015 0 0.0041044 0.016 0 0.0041044
0.0185 0 0.0041044 0.018 0 0.0041044 0.019 0 0.0041044 0.0215
0 0.0041044 0.021 0 0.0041044 0.022 0 0.0041544 0.0005 0
0.0041544 0 0 0.0041544 0.001 0 0.0041544 0.0035 0 0.0041544
0.003 0 0.0041544 0.004 0 0.0041544 0.0065 0 0.0041544 0.006
0 0.0041544 0.007 0 0.0041544 0.0095 0 0.0041544 0.009 0
0.0041544 0.01 0 0.0041544 0.0125 0 0.0041544 0.012 0 0.0041544
0.013 0 0.0041544 0.0155 0 0.0041544 0.015 0 0.0041544 0.016
0 0.0041544 0.0185 0 0.0041544 0.018 0 0.0041544 0.019 0
0.0041544 0.0215 0 0.0041544 0.021 0 0.0041544 0.022 0 0.0042044
0.0005 0 0.0042044 0 0 0.0042044 0.001 0 0.0042044 0.0035
0 0.0042044 0.003 0 0.0042044 0.004 0 0.0042044 0.0065 0
0.0042044 0.006 0 0.0042044 0.007 0 0.0042044 0.0095 0 0.0042044
0.009 0 0.0042044 0.01 0 0.0042044 0.0125 0 0.0042044 0.012
0 0.0042044 0.013 0 0.0042044 0.0155 0 0.0042044 0.015 0
0.0042044 0.016 0 0.0042044 0.0185 0 0.0042044 0.018 0 0.0042044
0.019 0 0.0042044 0.0215 0 0.0042044 0.021 0 0.0042044 0.022
0 0.0042544 0.0005 0 0.0042544 0 0 0.0042544 0.001 0
0.0042544 0.0035 0 0.0042544 0.003 0 0.0042544 0.004 0 0.0042544
0.0065 0 0.0042544 0.006 0 0.0042544 0.007 0 0.0042544 0.0095
0 0.0042544 0.009 0 0.0042544 0.01 0 0.0042544 0.0125 0
0.0042544 0.012 0 0.0042544 0.013 0 0.0042544 0.0155 0 0.0042544
0.015 0 0.0042544 0.016 0 0.0042544 0.0185 0 0.0042544 0.018
0 0.0042544 0.019 0 0.0042544 0.0215 0 0.0042544 0.021 0
0.0042544 0.022 0 0.0043044 0.0005 0 0.0043044 0 0 0.0043044
0.001 0 0.0043044 0.0035 0 0.0043044 0.003 0 0.0043044 0.004
0 0.0043044 0.0065 0 0.0043044 0.006 0 0.0043044 0.007 0
0.0043044 0.0095 0 0.0043044 0.009 0 0.0043044 0.01 0 0.0043044
0.0125 0 0.0043044 0.012 0 0.0043044 0.013 0 0.0043044 0.0155
0 0.0043044 0.015 0 0.0043044 0.016 0 0.0043044 0.0185 0
0.0043044 0.018 0 0.0043044 0.019 0 0.0043044 0.0215 0 0.0043044
0.021 0 0.0043044 0.022 0 0.0043544 0.0005 0 0.0043544 0
0 0.0043544 0.001 0 0.0043544 0.0035 0 0.0043544 0.003 0
0.0043544 0.004 0 0.0043544 0.0065 0 0.0043544 0.006 0 0.0043544
0.007 0 0.0043544 0.0095 0 0.0043544 0.009 0 0.0043544 0.01
0 0.0043544 0.0125 0 0.0043544 0.012 0 0.0043544 0.013 0
0.0043544 0.0155 0 0.0043544 0.015 0 0.0043544 0.016 0 0.0043544
0.0185 0 0.0043544 0.018 0 0.0043544 0.019 0 0.0043544 0.0215
0 0.0043544 0.021 0 0.0043544 0.022 0 0.0044044 0.0005 0
0.0044044 0 0 0.0044044 0.001 0 0.0044044 0.0035 0 0.0044044
0.003 0 0.0044044 0.004 0 0.0044044 0.0065 0 0.0044044 0.006
0 0.0044044 0.007 0 0.0044044 0.0095 0 0.0044044 0.009 0
0.0044044 0.01 0 0.0044044 0.0125 0 0.0044044 0.012 0 0.0044044
0.013 0 0.0044044 0.0155 0 0.0044044 0.015 0 0.0044044 0.016
0 0.0044044 0.0185 0 0.0044044 0.018 0 0.0044044 0.019 0
0.0044044 0.0215 0 0.0044044 0.021 0 0.0044044 0.022 0 0.0044544
0.0005 0 0.0044544 0 0 0.0044544 0.001 0 0.0044544 0.0035
0 0.0044544 0.003 0 0.0044544 0.004 0 0.0044544 0.0065 0
0.0044544 0.006 0 0.0044544 0.007 0 0.0044544 0.0095 0 0.0044544
0.009 0 0.0044544 0.01 0 0.0044544 0.0125 0 0.0044544 0.012
0 0.0044544 0.013 0 0.0044544 0.0155 0 0.0044544 0.015 0
0.0044544 0.016 0 0.0044544 0.0185 0 0.0044544 0.018 0 0.0044544
0.019 0 0.0044544 0.0215 0 0.0044544 0.021 0 0.0044544 0.022
0 0.0045044 0.0005 0 0.0045044 0 0 0.0045044 0.001 0
0.0045044 0.0035 0 0.0045044 0.003 0 0.0045044 0.004 0 0.0045044
0.0065 0 0.0045044 0.006 0 0.0045044 0.007 0 0.0045044 0.0095
0 0.0045044 0.009 0 0.0045044 0.01 0 0.0045044 0.0125 0
0.0045044 0.012 0 0.0045044 0.013 0 0.0045044 0.0155 0 0.0045044
0.015 0 0.0045044 0.016 0 0.0045044 0.0185 0 0.0045044 0.018
0 0.0045044 0.019 0 0.0045044 0.0215 0 0.0045044 0.021 0
0.0045044 0.022 0 0.0045544 0.0005 0 0.0045544 0 0 0.0045544
0.001 0 0.0045544 0.0035 0 0.0045544 0.003 0 0.0045544 0.004
0 0.0045544 0.0065 0 0.0045544 0.006 0 0.0045544 0.007 0
0.0045544 0.0095 0 0.0045544 0.009 0 0.0045544 0.01 0 0.0045544
0.0125 0 0.0045544 0.012 0 0.0045544 0.013 0 0.0045544 0.0155
0 0.0045544 0.015 0 0.0045544 0.016 0 0.0045544 0.0185 0
0.0045544 0.018 0 0.0045544 0.019 0 0.0045544 0.0215 0 0.0045544
0.021 0 0.0045544 0.022 0 0.0046044 0.0005 0 0.0046044 0
0 0.0046044 0.001 0 0.0046044 0.0035 0 0.0046044 0.003 0
0.0046044 0.004 0 0.0046044 0.0065 0 0.0046044 0.006 0 0.0046044
0.007 0 0.0046044 0.0095 0 0.0046044 0.009 0 0.0046044 0.01
0 0.0046044 0.0125 0 0.0046044 0.012 0 0.0046044 0.013 0
0.0046044 0.0155 0 0.0046044 0.015 0 0.0046044 0.016 0 0.0046044
0.0185 0 0.0046044 0.018 0 0.0046044 0.019 0 0.0046044 0.0215
0 0.0046044 0.021 0 0.0046044 0.022 0 0.0046544 0.0005 0
0.0046544 0 0 0.0046544 0.001 0 0.0046544 0.0035 0 0.0046544
0.003 0 0.0046544 0.004 0 0.0046544 0.0065 0 0.0046544 0.006
0 0.0046544 0.007 0 0.0046544 0.0095 0 0.0046544 0.009 0
0.0046544 0.01 0 0.0046544 0.0125 0 0.0046544 0.012 0 0.0046544
0.013 0 0.0046544 0.0155 0 0.0046544 0.015 0 0.0046544 0.016
0 0.0046544 0.0185 0 0.0046544 0.018 0 0.0046544 0.019 0
0.0046544 0.0215 0 0.0046544 0.021 0 0.0046544 0.022 0 0.0047044
0.0005 0 0.0047044 0 0 0.0047044 0.001 0 0.0047044 0.0035
0 0.0047044 0.003 0 0.0047044 0.004 0 0.0047044 0.0065 0
0.0047044 0.006 0 0.0047044 0.007 0 0.0047044 0.0095 0 0.0047044
0.009 0 0.0047044 0.01 0 0.0047044 0.0125 0 0.0047044 0.012
0 0.0047044 0.013 0 0.0047044 0.0155 0 0.0047044 0.015 0
0.0047044 0.016 0 0.0047044 0.0185 0 0.0047044 0.018 0 0.0047044
0.019 0 0.0047044 0.0215 0 0.0047044 0.021 0 0.0047044 0.022
0 0.0047544 0.0005 0 0.0047544 0 0 0.0047544 0.001 0
0.0047544 0.0035 0 0.0047544 0.003 0 0.0047544 0.004 0 0.0047544
0.0065 0 0.0047544 0.006 0 0.0047544 0.007 0 0.0047544 0.0095
0 0.0047544 0.009 0 0.0047544 0.01 0 0.0047544 0.0125 0
0.0047544 0.012 0 0.0047544 0.013 0 0.0047544 0.0155 0 0.0047544
0.015 0 0.0047544 0.016 0 0.0047544 0.0185 0 0.0047544 0.018
0 0.0047544 0.019 0 0.0047544 0.0215 0 0.0047544 0.021 0
0.0047544 0.022 0 0.0048044 0.0005 0 0.0048044 0 0 0.0048044
0.001 0 0.0048044 0.0035 0 0.0048044 0.003 0 0.0048044 0.004
0 0.0048044 0.0065 0 0.0048044 0.006 0 0.0048044 0.007 0
0.0048044 0.0095 0 0.0048044 0.009 0 0.0048044 0.01 0 0.0048044
0.0125 0 0.0048044 0.012 0 0.0048044 0.013 0 0.0048044 0.0155
0 0.0048044 0.015 0 0.0048044 0.016 0 0.0048044 0.0185 0
0.0048044 0.018 0 0.0048044 0.019 0 0.0048044 0.0215 0 0.0048044
0.021 0 0.0048044 0.022 0 0.0048544 0.0005 0 0.0048544 0
0 0.0048544 0.001 0 0.0048544 0.0035 0 0.0048544 0.003 0
0.0048544 0.004 0 0.0048544 0.0065 0 0.0048544 0.006 0 0.0048544
0.007 0 0.0048544 0.0095 0 0.0048544 0.009 0 0.0048544 0.01
0 0.0048544 0.0125 0 0.0048544 0.012 0 0.0048544 0.013 0
0.0048544 0.0155 0 0.0048544 0.015 0 0.0048544 0.016 0 0.0048544
0.0185 0 0.0048544 0.018 0 0.0048544 0.019 0 0.0048544 0.0215
0 0.0048544 0.021 0 0.0048544 0.022 0 0.0049044 0.0005 0
0.0049044 0 0 0.0049044 0.001 0 0.0049044 0.0035 0 0.0049044
0.003 0 0.0049044 0.004 0 0.0049044 0.0065 0 0.0049044 0.006
0 0.0049044 0.007 0 0.0049044 0.0095 0 0.0049044 0.009 0
0.0049044 0.01 0 0.0049044 0.0125 0 0.0049044 0.012 0 0.0049044
0.013 0 0.0049044 0.0155 0 0.0049044 0.015 0 0.0049044 0.016
0 0.0049044 0.0185 0 0.0049044 0.018 0 0.0049044 0.019 0
0.0049044 0.0215 0 0.0049044 0.021 0 0.0049044 0.022 0 0.0049544
0.0005 0 0.0049544 0 0 0.0049544 0.001 0 0.0049544 0.0035
0 0.0049544 0.003 0 0.0049544 0.004 0 0.0049544 0.0065 0
0.0049544 0.006 0 0.0049544 0.007 0 0.0049544 0.0095 0 0.0049544
0.009 0 0.0049544 0.01 0 0.0049544 0.0125 0 0.0049544 0.012
0 0.0049544 0.013 0 0.0049544 0.0155 0 0.0049544 0.015 0
0.0049544 0.016 0 0.0049544 0.0185 0 0.0049544 0.018 0 0.0049544
0.019 0 0.0049544 0.0215 0 0.0049544 0.021 0 0.0049544 0.022
0 0.0050044 0.0005 0 0.0050044 0 0 0.0050044 0.001 0
0.0050044 0.0035 0 0.0050044 0.003 0 0.0050044 0.004 0 0.0050044
0.0065 0 0.0050044 0.006 0 0.0050044 0.007 0 0.0050044 0.0095
0 0.0050044 0.009 0 0.0050044 0.01 0 0.0050044 0.0125 0
0.0050044 0.012 0 0.0050044 0.013 0 0.0050044 0.0155 0 0.0050044
0.015 0 0.0050044 0.016 0 0.0050044 0.0185 0 0.0050044 0.018
0 0.0050044 0.019 0 0.0050044 0.0215 0 0.0050044 0.021 0
0.0050044 0.022 0 0.0050544 0.0005 0 0.0050544 0 0 0.0050544
0.001 0 0.0050544 0.0035 0 0.0050544 0.003 0 0.0050544 0.004
0 0.0050544 0.0065 0 0.0050544 0.006 0 0.0050544 0.007 0
0.0050544 0.0095 0 0.0050544 0.009 0 0.0050544 0.01 0 0.0050544
0.0125 0 0.0050544 0.012 0 0.0050544 0.013 0 0.0050544 0.0155
0 0.0050544 0.015 0 0.0050544 0.016 0 0.0050544 0.0185 0
[...]
CELL_DATA 4260
FIELD attributes 4
patchID 1 4260 float
13 13 13 13 13 13 13 13 13 13 13
13 13 13 13 13 13 13 13 13 13
13 13 13 13 13 13 13 13 13 13
13 13 13 13 13 13 13 13 13 13
13 13 13 13 13 13 13 13 13 13
13 13 13 13 13 13 13 13 13 13
13 13 13 13 13 13 13 13 13 13
13 13 13 13 13 13 13 13 13 13
13 13 13 13 13 13 13 13 13 13
13 13 13 13 13 13 13 13 13 13
13 13 13 13 13 13 13 13 13 13
13 13 13 13 13 13 13 13 13 13
13 13 13 13 13 13 13 13 13 13
13 13 13 13 13 13 13 13 13 13
13 13 13 13 13 13 13 13 13 13
13 13 13 13 13 13 13 13 13 13
13 13 13 13 13 13 13 13 13 13
13 13 13 13 13 13 13 13 13 13
13 13 13 13 13 13 13 13 13 13
13 13 13 13 13 13 13 13 13 13
13 13 13 13 13 13 13 13 13 13
13 13 13 13 13 13 13 13 13 13
13 13 13 13 13 13 13 13 13 13
13 13 13 13 13 13 13 13 13 13
13 13 13 13 13 13 13 13 13 13
13 13 13 13 13 13 13 13 13 13
13 13 13 13 13 13 13 13 13 13
13 13 13 13 13 13 13 13 13 13
13 13 13 13 13 13 13 13 13 13
13 13 13 13 13 13 13 13 13 13
13 13 13 13 13 13 13 13 13 13
13 13 13 13 13 13 13 13 13 13
13 13 13 13 13 13 13 13 13 13
13 13 13 13 13 13 13 13 13 13
13 13 13 13 13 13 13 13 13 13
13 13 13 13 13 13 13 13 13 13
13 13 13 13 13 13 13 13 13 13
13 13 13 13 13 13 13 13 13 13
13 13 13 13 13 13 13 13 13 13
13 13 13 13 13 13 13 13 13 13
13 13 13 13 13 13 13 13 13 13
13 13 13 13 13 13 13 13 13 13
13 13 13 13 13 13 13 13 13 13
13 13 13 13 13 13 13 13 13 13
13 13 13 13 13 13 13 13 13 13
13 13 13 13 13 13 13 13 13 13
13 13 13 13 13 13 13 13 13 13
13 13 13 13 13 13 13 13 13 13
13 13 13 13 13 13 13 13 13 13
13 13 13 13 13 13 13 13 13 13
13 13 13 13 13 13 13 13 13 13
13 13 13 13 13 13 13 13 13 13
13 13 13 13 13 13 13 13 13 13
13 13 13 13 13 13 13 13 13 13
13 13 13 13 13 13 13 13 13 13
13 13 13 13 13 13 13 13 13 13
13 13 13 13 13 13 13 13 13 13
13 13 13 13 13 13 13 13 13 13
13 13 13 13 13 13 13 13 13 13
13 13 13 13 13 13 13 13 13 13
13 13 13 13 13 13 13 13 13 13
13 13 13 13 13 13 13 13 13 13
13 13 13 13 13 13 13 13 13 13
13 13 13 13 13 13 13 13 13 13
13 13 13 13 13 13 13 13 13 13
13 13 13 13 13 13 13 13 13 13
13 13 13 13 13 13 13 13 13 13
13 13 13 13 13 13 13 13 13 13
13 13 13 13 13 13 13 13 13 13
13 13 13 13 13 13 13 13 13 13
13 13 13 13 13 13 13 13 13 13
13 13 13 13 13 13 13 13 13 13
13 13 13 13 13 13 13 13 13 13
13 13 13 13 13 13 13 13 13 13
13 13 13 13 13 13 13 13 13 13
13 13 13 13 13 13 13 13 13 13
13 13 13 13 13 13 13 13 13 13
13 13 13 13 13 13 13 13 13 13
13 13 13 13 13 13 13 13 13 13
13 13 13 13 13 13 13 13 13 13
13 13 13 13 13 13 13 13 13 13
13 13 13 13 13 13 13 13 13 13
13 13 13 13 13 13 13 13 13 13
13 13 13 13 13 13 13 13 13 13
13 13 13 13 13 13 13 13 13 13
13 13 13 13 13 13 13 13 13 13
13 13 13 13 13 13 13 13 13 13
13 13 13 13 13 13 13 13 13 13
13 13 13 13 13 13 13 13 13 13
13 13 13 13 13 13 13 13 13 13
13 13 13 13 13 13 13 13 13 13
13 13 13 13 13 13 13 13 13 13
13 13 13 13 13 13 13 13 13 13
13 13 13 13 13 13 13 13 13 13
13 13 13 13 13 13 13 13 13 13
13 13 13 13 13 13 13 13 13 13
13 13 13 13 13 13 13 13 13 13
13 13 13 13 13 13 13 13 13 13
13 13 13 13 13 13 13 13 13 13
13 13 13 13 13 13 13 13 13 13
13 13 13 13 13 13 13 13 13 13
13 13 13 13 13 13 13 13 13 13
13 13 13 13 13 13 13 13 13 13
13 13 13 13 13 13 13 13 13 13
13 13 13 13 13 13 13 13 13 13
13 13 13 13 13 13 13 13 13 13
13 13 13 13 13 13 13 13 13 13
13 13 13 13 13 13 13 13 13 13
13 13 13 13 13 13 13 13 13 13
13 13 13 13 13 13 13 13 13 13
13 13 13 13 13 13 13 13 13 13
13 13 13 13 13 13 13 13 13 13
13 13 13 13 13 13 13 13 13 13
13 13 13 13 13 13 13 13 13 13
13 13 13 13 13 13 13 13 13 13
13 13 13 13 13 13 13 13 13 13
13 13 13 13 13 13 13 13 13 13
13 13 13 13 13 13 13 13 13 13
13 13 13 13 13 13 13 13 13 13
13 13 13 13 13 13 13 13 13 13
13 13 13 13 13 13 13 13 13 13
13 13 13 13 13 13 13 13 13 13
13 13 13 13 13 13 13 13 13 13
13 13 13 13 13 13 13 13 13 13
13 13 13 13 13 13 13 13 13 13
13 13 13 13 13 13 13 13 13 13
13 13 13 13 13 13 13 13 13 13
13 13 13 13 13 13 13 13 13 13
13 13 13 13 13 13 13 13 13 13
13 13 13 13 13 13 13 13 13 13
13 13 13 13 13 13 13 13 13 13
13 13 13 13 13 13 13 13 13 13
13 13 13 13 13 13 13 13 13 13
13 13 13 13 13 13 13 13 13 13
13 13 13 13 13 13 13 13 13 13
13 13 13 13 13 13 13 13 13 13
13 13 13 13 13 13 13 13 13 13
13 13 13 13 13 13 13 13 13 13
13 13 13 13 13 13 13 13 13 13
13 13 13 13 13 13 13 13 13 13
13 13 13 13 13 13 13 13 13 13
13 13 13 13 13 13 13 13 13 13
13 13 13 13 13 13 13 13 13 13
13 13 13 13 13 13 13 13 13 13
13 13 13 13 13 13 13 13 13 13
13 13 13 13 13 13 13 13 13 13
13 13 13 13 13 13 13 13 13 13
13 13 13 13 13 13 13 13 13 13
13 13 13 13 13 13 13 13 13 13
13 13 13 13 13 13 13 13 13 13
13 13 13 13 13 13 13 13 13 13
13 13 13 13 13 13 13 13 13 13
13 13 13 13 13 13 13 13 13 13
13 13 13 13 13 13 13 13 13 13
13 13 13 13 13 13 13 13 13 13
13 13 13 13 13 13 13 13 13 13
13 13 13 13 13 13 13 13 13 13
13 13 13 13 13 13 13 13 13 13
13 13 13 13 13 13 13 13 13 13
13 13 13 13 13 13 13 13 13 13
13 13 13 13 13 13 13 13 13 13
13 13 13 13 13 13 13 13 13 13
13 13 13 13 13 13 13 13 13 13
13 13 13 13 13 13 13 13 13 13
13 13 13 13 13 13 13 13 13 13
13 13 13 13 13 13 13 13 13 13
13 13 13 13 13 13 13 13 13 13
13 13 13 13 13 13 13 13 13 13
13 13 13 13 13 13 13 13 13 13
13 13 13 13 13 13 13 13 13 13
13 13 13 13 13 13 13 13 13 13
13 13 13 13 13 13 13 13 13 13
13 13 13 13 13 13 13 13 13 13
13 13 13 13 13 13 13 13 13 13
13 13 13 13 13 13 13 13 13 13
13 13 13 13 13 13 13 13 13 13
13 13 13 13 13 13 13 13 13 13
13 13 13 13 13 13 13 13 13 13
13 13 13 13 13 13 13 13 13 13
13 13 13 13 13 13 13 13 13 13
13 13 13 13 13 13 13 13 13 13
13 13 13 13 13 13 13 13 13 13
13 13 13 13 13 13 13 13 13 13
13 13 13 13 13 13 13 13 13 13
13 13 13 13 13 13 13 13 13 13
13 13 13 13 13 13 13 13 13 13
13 13 13 13 13 13 13 13 13 13
13 13 13 13 13 13 13 13 13 13
13 13 13 13 13 13 13 13 13 13
13 13 13 13 13 13 13 13 13 13
13 13 13 13 13 13 13 13 13 13
13 13 13 13 13 13 13 13 13 13
13 13 13 13 13 13 13 13 13 13
13 13 13 13 13 13 13 13 13 13
13 13 13 13 13 13 13 13 13 13
13 13 13 13 13 13 13 13 13 13
13 13 13 13 13 13 13 13 13 13
13 13 13 13 13 13 13 13 13 13
13 13 13 13 13 13 13 13 13 13
13 13 13 13 13 13 13 13 13 13
13 13 13 13 13 13 13 13 13 13
13 13 13 13 13 13 13 13 13 13
13 13 13 13 13 13 13 13 13 13
13 13 13 13 13 13 13 13 13 13
13 13 13 13 13 13 13 13 13 13
13 13 13 13 13 13 13 13 13 13
13 13 13 13 13 13 13 13 13 13
13 13 13 13 13 13 13 13 13 13
13 13 13 13 13 13 13 13 13 13
13 13 13 13 13 13 13 13 13 13
13 13 13 13 13 13 13 13 13 13
13 13 13 13 13 13 13 13 13 13
13 13 13 13 13 13 13 13 13 13
13 13 13 13 13 13 13 13 13 13
13 13 13 13 13 13 13 13 13 13
13 13 13 13 13 13 13 13 13 13
13 13 13 13 13 13 13 13 13 13
13 13 13 13 13 13 13 13 13 13
13 13 13 13 13 13 13 13 13 13
13 13 13 13 13 13 13 13 13 13
13 13 13 13 13 13 13 13 13 13
13 13 13 13 13 13 13 13 13 13
13 13 13 13 13 13 13 13 13 13
13 13 13 13 13 13 13 13 13 13
13 13 13 13 13 13 13 13 13 13
13 13 13 13 13 13 13 13 13 13
13 13 13 13 13 13 13 13 13 13
13 13 13 13 13 13 13 13 13 13
13 13 13 13 13 13 13 13 13 13
13 13 13 13 13 13 13 13 13 13
13 13 13 13 13 13 13 13 13 13
13 13 13 13 13 13 13 13 13 13
13 13 13 13 13 13 13 13 13 13
13 13 13 13 13 13 13 13 13 13
13 13 13 13 13 13 13 13 13 13
13 13 13 13 13 13 13 13 13 13
13 13 13 13 13 13 13 13 13 13
13 13 13 13 13 13 13 13 13 13
13 13 13 13 13 13 13 13 13 13
13 13 13 13 13 13 13 13 13 13
13 13 13 13 13 13 13 13 13 13
13 13 13 13 13 13 13 13 13 13
13 13 13 13 13 13 13 13 13 13
13 13 13 13 13 13 13 13 13 13
13 13 13 13 13 13 13 13 13 13
13 13 13 13 13 13 13 13 13 13
13 13 13 13 13 13 13 13 13 13
13 13 13 13 13 13 13 13 13 13
13 13 13 13 13 13 13 13 13 13
13 13 13 13 13 13 13 13 13 13
13 13 13 13 13 13 13 13 13 13
13 13 13 13 13 13 13 13 13 13
13 13 13 13 13 13 13 13 13 13
13 13 13 13 13 13 13 13 13 13
13 13 13 13 13 13 13 13 13 13
13 13 13 13 13 13 13 13 13 13
13 13 13 13 13 13 13 13 13 13
13 13 13 13 13 13 13 13 13 13
13 13 13 13 13 13 13 13 13 13
13 13 13 13 13 13 13 13 13 13
13 13 13 13 13 13 13 13 13 13
13 13 13 13 13 13 13 13 13 13
13 13 13 13 13 13 13 13 13 13
13 13 13 13 13 13 13 13 13 13
13 13 13 13 13 13 13 13 13 13
13 13 13 13 13 13 13 13 13 13
13 13 13 13 13 13 13 13 13 13
13 13 13 13 13 13 13 13 13 13
13 13 13 13 13 13 13 13 13 13
13 13 13 13 13 13 13 13 13 13
13 13 13 13 13 13 13 13 13 13
13 13 13 13 13 13 13 13 13 13
13 13 13 13 13 13 13 13 13 13
13 13 13 13 13 13 13 13 13 13
13 13 13 13 13 13 13 13 13 13
13 13 13 13 13 13 13 13 13 13
13 13 13 13 13 13 13 13 13 13
13 13 13 13 13 13 13 13 13 13
13 13 13 13 13 13 13 13 13 13
13 13 13 13 13 13 13 13 13 13
13 13 13 13 13 13 13 13 13 13
13 13 13 13 13 13 13 13 13 13
13 13 13 13 13 13 13 13 13 13
13 13 13 13 13 13 13 13 13 13
13 13 13 13 13 13 13 13 13 13
13 13 13 13 13 13 13 13 13 13
13 13 13 13 13 13 13 13 13 13
13 13 13 13 13 13 13 13 13 13
13 13 13 13 13 13 13 13 13 13
13 13 13 13 13 13 13 13 13 13
13 13 13 13 13 13 13 13 13 13
13 13 13 13 13 13 13 13 13 13
13 13 13 13 13 13 13 13 13 13
13 13 13 13 13 13 13 13 13 13
13 13 13 13 13 13 13 13 13 13
13 13 13 13 13 13 13 13 13 13
13 13 13 13 13 13 13 13 13 13
13 13 13 13 13 13 13 13 13 13
13 13 13 13 13 13 13 13 13 13
13 13 13 13 13 13 13 13 13 13
13 13 13 13 13 13 13 13 13 13
13 13 13 13 13 13 13 13 13 13
13 13 13 13 13 13 13 13 13 13
13 13 13 13 13 13 13 13 13 13
13 13 13 13 13 13 13 13 13 13
13 13 13 13 13 13 13 13 13 13
13 13 13 13 13 13 13 13 13 13
13 13 13 13 13 13 13 13 13 13
13 13 13 13 13 13 13 13 13 13
13 13 13 13 13 13 13 13 13 13
13 13 13 13 13 13 13 13 13 13
13 13 13 13 13 13 13 13 13 13
13 13 13 13 13 13 13 13 13 13
13 13 13 13 13 13 13 13 13 13
13 13 13 13 13 13 13 13 13 13
13 13 13 13 13 13 13 13 13 13
13 13 13 13 13 13 13 13 13 13
13 13 13 13 13 13 13 13 13 13
13 13 13 13 13 13 13 13 13 13
13 13 13 13 13 13 13 13 13 13
13 13 13 13 13 13 13 13 13 13
13 13 13 13 13 13 13 13 13 13
13 13 13 13 13 13 13 13 13 13
13 13 13 13 13 13 13 13 13 13
13 13 13 13 13 13 13 13 13 13
13 13 13 13 13 13 13 13 13 13
13 13 13 13 13 13 13 13 13 13
13 13 13 13 13 13 13 13 13 13
13 13 13 13 13 13 13 13 13 13
13 13 13 13 13 13 13 13 13 13
13 13 13 13 13 13 13 13 13 13
13 13 13 13 13 13 13 13 13 13
13 13 13 13 13 13 13 13 13 13
13 13 13 13 13 13 13 13 13 13
13 13 13 13 13 13 13 13 13 13
13 13 13 13 13 13 13 13 13 13
13 13 13 13 13 13 13 13 13 13
13 13 13 13 13 13 13 13 13 13
13 13 13 13 13 13 13 13 13 13
13 13 13 13 13 13 13 13 13 13
13 13 13 13 13 13 13 13 13 13
13 13 13 13 13 13 13 13 13 13
13 13 13 13 13 13 13 13 13 13
13 13 13 13 13 13 13 13 13 13
13 13 13 13 13 13 13 13 13 13
13 13 13 13 13 13 13 13 13 13
13 13 13 13 13 13 13 13 13 13
13 13 13 13 13 13 13 13 13 13
13 13 13 13 13 13 13 13 13 13
13 13 13 13 13 13 13 13 13 13
13 13 13 13 13 13 13 13 13 13
13 13 13 13 13 13 13 13 13 13
13 13 13 13 13 13 13 13 13 13
13 13 13 13 13 13 13 13 13 13
13 13 13 13 13 13 13 13 13 13
13 13 13 13 13 13 13 13 13 13
13 13 13 13 13 13 13 13 13 13
13 13 13 13 13 13 13 13 13 13
13 13 13 13 13 13 13 13 13 13
13 13 13 13 13 13 13 13 13 13
13 13 13 13 13 13 13 13 13 13
13 13 13 13 13 13 13 13 13 13
13 13 13 13 13 13 13 13 13 13
13 13 13 13 13 13 13 13 13 13
13 13 13 13 13 13 13 13 13 13
13 13 13 13 13 13 13 13 13 13
13 13 13 13 13 13 13 13 13 13
13 13 13 13 13 13 13 13 13 13
13 13 13 13 13 13 13 13 13 13
13 13 13 13 13 13 13 13 13 13
13 13 13 13 13 13 13 13 13 13
13 13 13 13 13 13 13 13 13 13
13 13 13 13 13 13 13 13 13 13
13 13 13 13 13 13 13 13 13 13
13 13 13 13 13 13 13 13 13 13
13 13 13 13 13 13 13 13 13 13
13 13 13 13 13 13 13 13 13 13
13 13 13 13 13 13 13 13 13 13
13 13 13 13 13 13 13 13 13 13
13 13 13 13 13 13 13 13 13 13
13 13 13 13 13 13 13 13 13 13
13 13 13 13 13 13 13 13 13 13
13 13 13 13 13 13 13 13 13 13
13 13 13 13 13 13 13 13 13 13
13 13 13 13 13 13 13 13 13 13
13 13 13 13 13 13 13 13 13 13
13 13 13 13 13 13 13 13 13 13
13 13 13 13 13 13 13 13 13 13
13 13 13 13 13 13 13 13 13 13
13 13 13 13 13 13 13 13 13 13
13 13 13 13 13 13 13 13 13 13
13 13 13 13 13 13 13 13 13 13
13 13 13 13 13 13 13 13 13 13
13 13 13 13 13 13 13 13 13 13
13 13 13 13 13 13 13 13 13 13
13 13 13 13 13 13 13 13 13 13
13 13 13 13 13 13 13 13 13 13
13 13 13 13 13 13 13 13 13 13
13 13 13 13 13 13 13 13 13 13
13 13 13 13 13 13 13 13 13 13
13 13 13 13 13 13 13 13 13 13
13 13 13 13 13 13 13 13 13 13
13 13 13 13 13 13 13 13 13 13
13 13 13 13 13 13 13 13 13 13
13 13 13 13 13 13 13 13 13 13
13 13 13 13 13 13 13 13 13 13
13 13 13 13 13 13 13 13 13 13
13 13 13 13 13 13 13 13 13 13
13 13 13 13 13 13 13 13 13 13
13 13 13 13 13 13 13 13 13 13
13 13 13 13 13 13 13 13 13 13
13 13 13 13 13 13 13 13 13 13
13 13 13 13 13 13 13 13 13 13
13 13 13 13 13 13 13 13 13 13
13 13 13 13 13 13 13 13 13 13
13 13 13 13 13 13 13 13 13 13
13 13 13 13 13 13 13 13 13 13
13 13 13 13 13 13 13 13 13 13
13 13 13 13 13 13 13 13 13 13
13 13 13 13 13 13 13 13 13 13
13 13 13 13 13 13 13 13 13 13
13 13 13 13 13 13 13 13 13 13
13 13 13 13 13 13 13 13 13 13
13 13 13 13 13 13 13 13 13 13
13 13 13 13 13 13 13 13 13 13
13 13 13 13 13 13 13 13 13 
T 1 4260 float
353.088 353.087 353.079 353.079 353.076 353.076 353.075 353.075 353.075 353.075 353.076
353.076 353.079 353.079 353.087 353.088 353.088 353.087 353.078 353.078 353.076
353.076 353.075 353.075 353.075 353.075 353.076 353.076 353.078 353.078 353.087
353.088 353.087 353.087 353.078 353.078 353.076 353.076 353.075 353.075 353.075
353.075 353.076 353.076 353.078 353.078 353.087 353.087 353.087 353.087 353.078
353.078 353.076 353.076 353.075 353.075 353.075 353.075 353.076 353.076 353.078
353.078 353.087 353.087 353.087 353.086 353.078 353.078 353.076 353.076 353.075
353.075 353.075 353.075 353.076 353.076 353.078 353.078 353.086 353.087 353.087
353.086 353.078 353.078 353.076 353.076 353.075 353.075 353.075 353.075 353.076
353.076 353.078 353.078 353.086 353.087 353.087 353.086 353.078 353.078 353.076
353.076 353.075 353.075 353.075 353.075 353.076 353.076 353.078 353.078 353.086
353.087 353.087 353.086 353.078 353.078 353.076 353.076 353.075 353.075 353.075
353.075 353.076 353.076 353.078 353.078 353.086 353.087 353.086 353.086 353.078
353.078 353.076 353.076 353.075 353.075 353.075 353.075 353.076 353.076 353.078
353.078 353.086 353.086 353.086 353.086 353.078 353.078 353.076 353.076 353.075
353.075 353.075 353.075 353.076 353.076 353.078 353.078 353.086 353.086 353.086
353.086 353.078 353.078 353.076 353.076 353.075 353.075 353.075 353.075 353.076
353.076 353.078 353.078 353.086 353.086 353.086 353.086 353.078 353.078 353.076
353.076 353.075 353.075 353.075 353.075 353.076 353.076 353.078 353.078 353.086
353.086 353.086 353.086 353.078 353.078 353.076 353.076 353.075 353.075 353.075
353.075 353.076 353.076 353.078 353.078 353.086 353.086 353.086 353.085 353.078
353.078 353.076 353.076 353.075 353.075 353.075 353.075 353.076 353.076 353.078
353.078 353.085 353.086 353.086 353.085 353.078 353.078 353.076 353.076 353.075
353.075 353.075 353.075 353.076 353.076 353.078 353.078 353.085 353.086 353.085
353.085 353.078 353.078 353.076 353.076 353.075 353.075 353.075 353.075 353.076
353.076 353.078 353.078 353.085 353.085 353.085 353.085 353.078 353.078 353.076
353.076 353.075 353.075 353.075 353.075 353.076 353.076 353.078 353.078 353.085
353.085 353.085 353.085 353.078 353.078 353.076 353.076 353.075 353.075 353.075
353.075 353.076 353.076 353.078 353.078 353.085 353.085 353.085 353.085 353.078
353.078 353.076 353.076 353.075 353.075 353.075 353.075 353.076 353.076 353.078
353.078 353.085 353.085 353.085 353.085 353.078 353.078 353.076 353.076 353.075
353.075 353.075 353.075 353.076 353.076 353.078 353.078 353.085 353.085 353.085
353.085 353.078 353.078 353.076 353.076 353.075 353.075 353.075 353.075 353.076
353.076 353.078 353.078 353.084 353.085 353.085 353.084 353.078 353.078 353.076
353.076 353.075 353.075 353.075 353.075 353.076 353.076 353.078 353.078 353.084
353.085 353.085 353.084 353.078 353.078 353.076 353.076 353.075 353.075 353.075
353.075 353.076 353.076 353.078 353.078 353.084 353.085 353.084 353.084 353.078
353.078 353.076 353.076 353.075 353.075 353.075 353.075 353.076 353.076 353.078
353.078 353.084 353.084 353.084 353.084 353.078 353.078 353.076 353.076 353.075
353.075 353.075 353.075 353.076 353.076 353.078 353.078 353.084 353.084 353.084
353.084 353.078 353.078 353.076 353.076 353.075 353.075 353.075 353.075 353.076
353.076 353.078 353.078 353.084 353.084 353.084 353.084 353.078 353.078 353.076
353.076 353.075 353.075 353.075 353.075 353.076 353.076 353.078 353.078 353.084
353.084 353.084 353.083 353.078 353.078 353.076 353.076 353.075 353.075 353.075
353.075 353.076 353.076 353.078 353.078 353.083 353.084 353.084 353.083 353.078
353.078 353.076 353.076 353.075 353.075 353.075 353.075 353.076 353.076 353.078
353.078 353.083 353.084 353.084 353.083 353.078 353.078 353.076 353.076 353.075
353.075 353.075 353.075 353.076 353.076 353.078 353.078 353.083 353.084 353.159
353.16 353.158 353.158 353.156 353.156 353.155 353.155 353.155 353.155 353.156
353.156 353.158 353.158 353.16 353.159 353.159 353.159 353.158 353.158 353.156
353.156 353.155 353.155 353.155 353.155 353.156 353.156 353.158 353.158 353.159
353.159 353.159 353.159 353.157 353.157 353.155 353.155 353.154 353.154 353.154
353.154 353.155 353.155 353.157 353.157 353.159 353.159 353.158 353.159 353.157
353.157 353.155 353.155 353.154 353.154 353.154 353.154 353.155 353.155 353.157
353.157 353.159 353.158 353.158 353.158 353.156 353.156 353.154 353.154 353.154
353.154 353.154 353.154 353.154 353.154 353.156 353.156 353.158 353.158 353.158
353.158 353.156 353.156 353.154 353.154 353.153 353.153 353.153 353.153 353.154
353.154 353.156 353.156 353.158 353.158 353.157 353.157 353.155 353.155 353.153
353.153 353.153 353.153 353.153 353.153 353.153 353.153 353.155 353.155 353.157
353.157 353.157 353.157 353.155 353.155 353.153 353.153 353.152 353.152 353.152
353.152 353.153 353.153 353.155 353.155 353.157 353.157 353.157 353.157 353.155
353.155 353.153 353.153 353.152 353.152 353.152 353.152 353.153 353.153 353.155
353.155 353.157 353.157 353.156 353.156 353.154 353.154 353.152 353.152 353.151
353.151 353.151 353.151 353.152 353.152 353.154 353.154 353.156 353.156 353.156
353.156 353.154 353.154 353.152 353.152 353.151 353.151 353.151 353.151 353.152
353.152 353.154 353.154 353.156 353.156 353.156 353.156 353.153 353.153 353.151
353.151 353.151 353.151 353.151 353.151 353.151 353.151 353.153 353.153 353.156
353.156 353.155 353.155 353.153 353.153 353.151 353.151 353.15 353.15 353.15
353.15 353.151 353.151 353.153 353.153 353.155 353.155 353.155 353.155 353.153
353.152 353.151 353.151 353.15 353.15 353.15 353.15 353.151 353.151 353.152
353.153 353.155 353.155 353.155 353.155 353.152 353.152 353.15 353.15 353.149
353.149 353.149 353.149 353.15 353.15 353.152 353.152 353.155 353.155 353.154
353.154 353.152 353.152 353.15 353.15 353.149 353.149 353.149 353.149 353.15
353.15 353.152 353.152 353.154 353.154 353.154 353.154 353.151 353.151 353.15
353.15 353.149 353.149 353.149 353.149 353.15 353.15 353.151 353.151 353.154
353.154 353.154 353.154 353.151 353.151 353.149 353.149 353.148 353.148 353.148
353.148 353.149 353.149 353.151 353.151 353.154 353.154 353.154 353.153 353.151
353.151 353.149 353.149 353.148 353.148 353.148 353.148 353.149 353.149 353.151
353.151 353.153 353.154 353.153 353.153 353.15 353.15 353.148 353.148 353.148
353.148 353.148 353.148 353.148 353.148 353.15 353.15 353.153 353.153 353.153
353.153 353.15 353.15 353.148 353.148 353.147 353.147 353.147 353.147 353.148
353.148 353.15 353.15 353.153 353.153 353.153 353.152 353.15 353.15 353.148
353.148 353.147 353.147 353.147 353.147 353.148 353.148 353.15 353.15 353.152
353.153 353.152 353.152 353.149 353.149 353.147 353.147 353.147 353.147 353.147
353.147 353.147 353.147 353.149 353.149 353.152 353.152 353.152 353.152 353.149
353.149 353.147 353.147 353.146 353.146 353.146 353.146 353.147 353.147 353.149
353.149 353.152 353.152 353.152 353.152 353.149 353.149 353.147 353.147 353.146
353.146 353.146 353.146 353.147 353.147 353.149 353.149 353.151 353.152 353.152
353.151 353.148 353.148 353.147 353.147 353.146 353.146 353.146 353.146 353.147