/*--------------------------------*- C++ -*----------------------------------*\
| =========                 |                                                 |
| \\      /  F ield         | OpenFOAM: The Open Source CFD Toolbox           |
|  \\    /   O peration     | Version:  4.0                                   |
|   \\  /    A nd           | Web:      www.OpenFOAM.org                      |
|    \\/     M anipulation  |                                                 |
\*---------------------------------------------------------------------------*/
FoamFile
{
    version     2.0;
    format      ascii;
    class       volScalarField;
    location    "120/fuel";
    object      cp;
}
// * * * * * * * * * * * * * * * * * * * * * * * * * * * * * * * * * * * * * //

dimensions      [0 2 -2 -1 0 0 0];

internalField   nonuniform List<scalar> 
39776
(
1539.051
1539.069
1539.871
1539.889
1540.341
1540.359
1540.355
1540.374
1540.347
1540.366
1540.338
1540.356
1539.952
1539.97
1539.979
1539.997
1540.339
1540.358
1540.345
1540.364
1540.345
1540.364
1540.338
1540.357
1539.97
1539.988
1539.974
1539.992
1540.338
1540.357
1540.345
1540.364
1540.345
1540.363
1540.338
1540.357
1539.972
1539.99
1539.973
1539.991
1540.338
1540.357
1540.345
1540.363
1540.345
1540.363
1540.338
1540.357
1539.973
1539.991
1539.971
1539.989
1540.338
1540.356
1540.344
1540.363
1540.345
1540.363
1540.338
1540.357
1539.972
1539.991
1539.968
1539.986
1540.337
1540.356
1540.344
1540.363
1540.346
1540.364
1540.34
1540.359
1539.98
1539.999
1539.953
1539.971
1540.338
1540.357
1540.348
1540.367
1540.358
1540.376
1540.344
1540.363
1539.878
1539.896
1539.063
1539.081
1539.323
1539.34
1539.883
1539.901
1540.28
1540.298
1540.309
1540.327
1540.299
1540.317
1540.262
1540.28
1539.866
1539.884
1539.9
1539.918
1540.267
1540.285
1540.296
1540.314
1540.295
1540.313
1540.262
1540.28
1539.881
1539.899
1539.888
1539.906
1540.262
1540.281
1540.294
1540.312
1540.292
1540.311
1540.26
1540.279
1539.881
1539.899
1539.884
1539.902
1540.26
1540.279
1540.292
1540.311
1540.292
1540.311
1540.26
1540.279
1539.884
1539.902
1539.881
1539.899
1540.261
1540.279
1540.293
1540.312
1540.294
1540.312
1540.262
1540.281
1539.888
1539.906
1539.881
1539.899
1540.262
1540.28
1540.295
1540.313
1540.296
1540.315
1540.267
1540.285
1539.901
1539.919
1539.866
1539.884
1540.262
1540.28
1540.3
1540.318
1540.31
1540.328
1540.28
1540.299
1539.885
1539.903
1539.327
1539.344
1539.169
1539.187
1539.719
1539.737
1540.197
1540.215
1540.258
1540.277
1540.247
1540.265
1540.175
1540.193
1539.731
1539.749
1539.764
1539.782
1540.183
1540.202
1540.245
1540.263
1540.243
1540.261
1540.176
1540.195
1539.745
1539.763
1539.755
1539.773
1540.18
1540.198
1540.243
1540.262
1540.242
1540.261
1540.178
1540.196
1539.748
1539.765
1539.751
1539.769
1540.178
1540.196
1540.243
1540.261
1540.243
1540.261
1540.178
1540.197
1539.751
1539.769
1539.747
1539.765
1540.178
1540.196
1540.243
1540.261
1540.243
1540.262
1540.18
1540.198
1539.755
1539.773
1539.744
1539.762
1540.176
1540.195
1540.243
1540.261
1540.245
1540.263
1540.183
1540.202
1539.765
1539.783
1539.731
1539.749
1540.175
1540.193
1540.247
1540.266
1540.259
1540.277
1540.198
1540.216
1539.721
1539.739
1539.172
1539.19
1538.933
1538.951
1539.474
1539.492
1540.09
1540.109
1540.199
1540.217
1540.188
1540.206
1540.072
1540.09
1539.578
1539.596
1539.603
1539.62
1540.088
1540.106
1540.187
1540.206
1540.185
1540.203
1540.076
1540.094
1539.588
1539.606
1539.596
1539.614
1540.082
1540.1
1540.185
1540.203
1540.183
1540.202
1540.076
1540.094
1539.588
1539.606
1539.591
1539.608
1540.078
1540.096
1540.182
1540.201
1540.183
1540.201
1540.078
1540.096
1539.591
1539.608
1539.588
1539.606
1540.075
1540.093
1540.182
1540.201
1540.185
1540.203
1540.082
1540.1
1539.595
1539.613
1539.587
1539.605
1540.075
1540.093
1540.184
1540.203
1540.188
1540.206
1540.088
1540.106
1539.603
1539.621
1539.578
1539.596
1540.072
1540.09
1540.188
1540.206
1540.199
1540.217
1540.092
1540.11
1539.476
1539.494
1538.936
1538.954
1538.693
1538.711
1539.238
1539.255
1539.983
1540.001
1540.138
1540.157
1540.13
1540.148
1539.982
1540
1539.423
1539.441
1539.442
1539.459
1539.998
1540.016
1540.13
1540.149
1540.127
1540.145
1539.984
1540.002
1539.431
1539.449
1539.438
1539.455
1539.995
1540.013
1540.129
1540.147
1540.127
1540.145
1539.987
1540.005
1539.433
1539.451
1539.436
1539.454
1539.991
1540.009
1540.128
1540.146
1540.128
1540.146
1539.991
1540.009
1539.436
1539.454
1539.434
1539.451
1539.987
1540.005
1540.127
1540.145
1540.129
1540.147
1539.995
1540.013
1539.439
1539.456
1539.432
1539.45
1539.984
1540.002
1540.127
1540.146
1540.13
1540.148
1539.998
1540.016
1539.441
1539.459
1539.423
1539.441
1539.981
1539.999
1540.128
1540.147
1540.136
1540.155
1539.982
1540
1539.236
1539.254
1538.692
1538.71
1538.449
1538.467
1538.999
1539.016
1539.857
1539.875
1540.075
1540.093
1540.072
1540.091
1539.892
1539.91
1539.277
1539.295
1539.29
1539.308
1539.906
1539.924
1540.075
1540.093
1540.072
1540.09
1539.892
1539.91
1539.284
1539.301
1539.29
1539.308
1539.907
1539.925
1540.075
1540.093
1540.073
1540.091
1539.897
1539.915
1539.286
1539.304
1539.288
1539.306
1539.901
1539.919
1540.073
1540.091
1540.073
1540.092
1539.901
1539.919
1539.288
1539.306
1539.286
1539.303
1539.897
1539.915
1540.072
1540.09
1540.075
1540.093
1539.907
1539.925
1539.289
1539.307
1539.283
1539.301
1539.891
1539.909
1540.071
1540.089
1540.075
1540.093
1539.906
1539.924
1539.291
1539.309
1539.277
1539.295
1539.892
1539.91
1540.074
1540.092
1540.076
1540.095
1539.86
1539.878
1539.002
1539.02
1538.453
1538.471
1538.207
1538.224
1538.779
1538.796
1539.751
1539.769
1540.02
1540.038
1540.023
1540.041
1539.814
1539.832
1539.14
1539.158
1539.151
1539.168
1539.832
1539.85
1540.027
1540.045
1540.022
1540.04
1539.814
1539.832
1539.144
1539.162
1539.15
1539.168
1539.831
1539.849
1540.026
1540.044
1540.022
1540.041
1539.82
1539.838
1539.145
1539.162
1539.146
1539.164
1539.822
1539.84
1540.023
1540.041
1540.023
1540.041
1539.823
1539.841
1539.146
1539.164
1539.145
1539.162
1539.82
1539.838
1540.023
1540.041
1540.026
1540.044
1539.831
1539.849
1539.15
1539.167
1539.144
1539.162
1539.814
1539.832
1540.022
1540.04
1540.028
1540.046
1539.832
1539.85
1539.151
1539.169
1539.14
1539.158
1539.814
1539.832
1540.023
1540.041
1540.02
1540.038
1539.752
1539.77
1538.781
1538.798
1538.209
1538.227
1537.965
1537.982
1538.571
1538.588
1539.653
1539.671
1539.967
1539.985
1539.975
1539.993
1539.741
1539.759
1539.01
1539.028
1539.02
1539.038
1539.766
1539.784
1539.983
1540.001
1539.977
1539.995
1539.746
1539.764
1539.015
1539.033
1539.021
1539.039
1539.764
1539.782
1539.983
1540.001
1539.979
1539.997
1539.754
1539.772
1539.017
1539.035
1539.018
1539.036
1539.755
1539.773
1539.979
1539.997
1539.979
1539.998
1539.755
1539.773
1539.018
1539.036
1539.017
1539.035
1539.754
1539.772
1539.979
1539.997
1539.983
1540.001
1539.764
1539.782
1539.021
1539.039
1539.015
1539.032
1539.746
1539.764
1539.977
1539.995
1539.983
1540.001
1539.766
1539.784
1539.02
1539.038
1539.01
1539.028
1539.741
1539.759
1539.975
1539.993
1539.967
1539.985
1539.655
1539.672
1538.573
1538.59
1537.967
1537.984
1537.729
1537.746
1538.38
1538.397
1539.571
1539.589
1539.921
1539.939
1539.934
1539.952
1539.68
1539.698
1538.895
1538.912
1538.904
1538.922
1539.709
1539.727
1539.945
1539.963
1539.938
1539.956
1539.686
1539.704
1538.899
1538.916
1538.904
1538.922
1539.706
1539.724
1539.944
1539.962
1539.94
1539.959
1539.696
1539.714
1538.9
1538.917
1538.9
1538.917
1539.694
1539.712
1539.939
1539.957
1539.939
1539.957
1539.694
1539.712
1538.9
1538.917
1538.899
1538.917
1539.695
1539.713
1539.94
1539.958
1539.944
1539.962
1539.707
1539.724
1538.904
1538.922
1538.898
1538.916
1539.685
1539.703
1539.938
1539.956
1539.945
1539.963
1539.709
1539.727
1538.905
1538.922
1538.895
1538.912
1539.68
1539.698
1539.934
1539.952
1539.922
1539.94
1539.573
1539.591
1538.382
1538.4
1537.731
1537.748
1537.503
1537.52
1538.203
1538.221
1539.497
1539.514
1539.879
1539.897
1539.895
1539.913
1539.625
1539.643
1538.788
1538.806
1538.798
1538.816
1539.653
1539.671
1539.908
1539.926
1539.901
1539.919
1539.63
1539.648
1538.792
1538.81
1538.799
1538.816
1539.653
1539.671
1539.908
1539.926
1539.905
1539.923
1539.642
1539.66
1538.796
1538.813
1538.796
1538.814
1539.642
1539.66
1539.904
1539.922
1539.904
1539.922
1539.642
1539.66
1538.797
1538.814
1538.796
1538.814
1539.642
1539.66
1539.905
1539.923
1539.909
1539.927
1539.653
1539.671
1538.8
1538.817
1538.793
1538.811
1539.631
1539.649
1539.902
1539.92
1539.907
1539.925
1539.653
1539.671
1538.798
1538.815
1538.788
1538.805
1539.624
1539.642
1539.894
1539.912
1539.877
1539.895
1539.496
1539.513
1538.203
1538.22
1537.502
1537.519
1537.287
1537.304
1538.037
1538.055
1539.426
1539.444
1539.838
1539.856
1539.859
1539.877
1539.575
1539.593
1538.693
1538.71
1538.702
1538.719
1539.601
1539.619
1539.873
1539.891
1539.868
1539.886
1539.582
1539.6
1538.699
1538.716
1538.705
1538.722
1539.601
1539.619
1539.875
1539.893
1539.872
1539.89
1539.589
1539.607
1538.702
1538.72
1538.704
1538.722
1539.595
1539.613
1539.872
1539.89
1539.872
1539.89
1539.596
1539.613
1538.705
1538.722
1538.702
1538.719
1539.588
1539.606
1539.871
1539.889
1539.875
1539.893
1539.601
1539.619
1538.704
1538.722
1538.698
1538.716
1539.582
1539.599
1539.868
1539.886
1539.874
1539.892
1539.602
1539.62
1538.703
1538.72
1538.693
1538.711
1539.575
1539.593
1539.86
1539.878
1539.84
1539.858
1539.429
1539.446
1538.041
1538.059
1537.291
1537.308
1537.089
1537.106
1537.888
1537.905
1539.362
1539.38
1539.803
1539.821
1539.829
1539.847
1539.532
1539.549
1538.611
1538.628
1538.619
1538.636
1539.554
1539.572
1539.843
1539.861
1539.839
1539.857
1539.541
1539.559
1538.617
1538.634
1538.62
1538.638
1539.549
1539.567
1539.842
1539.86
1539.839
1539.857
1539.538
1539.556
1538.617
1538.634
1538.62
1538.637
1539.55
1539.567
1539.841
1539.859
1539.841
1539.859
1539.55
1539.568
1538.62
1538.637
1538.617
1538.634
1539.539
1539.557
1539.839
1539.857
1539.842
1539.86
1539.549
1539.567
1538.62
1538.638
1538.617
1538.634
1539.541
1539.559
1539.839
1539.857
1539.843
1539.861
1539.555
1539.572
1538.619
1538.637
1538.611
1538.628
1539.532
1539.55
1539.829
1539.847
1539.803
1539.821
1539.363
1539.381
1537.89
1537.907
1537.092
1537.109
1536.904
1536.921
1537.746
1537.764
1539.298
1539.316
1539.767
1539.785
1539.797
1539.815
1539.488
1539.506
1538.534
1538.552
1538.542
1538.559
1539.51
1539.528
1539.813
1539.831
1539.81
1539.828
1539.503
1539.521
1538.55
1538.568
1538.545
1538.562
1539.498
1539.516
1539.811
1539.828
1539.81
1539.828
1539.496
1539.514
1538.542
1538.56
1538.545
1538.563
1539.506
1539.524
1539.812
1539.83
1539.812
1539.83
1539.506
1539.524
1538.545
1538.563
1538.542
1538.559
1539.496
1539.514
1539.81
1539.828
1539.811
1539.829
1539.499
1539.516
1538.545
1538.562
1538.55
1538.568
1539.503
1539.52
1539.81
1539.828
1539.813
1539.831
1539.51
1539.528
1538.542
1538.56
1538.534
1538.552
1539.488
1539.506
1539.798
1539.816
1539.768
1539.786
1539.299
1539.317
1537.749
1537.766
1536.906
1536.923
1536.73
1536.747
1537.611
1537.628
1539.234
1539.252
1539.733
1539.751
1539.769
1539.787
1539.449
1539.466
1538.468
1538.485
1538.474
1538.492
1539.469
1539.486
1539.786
1539.804
1539.784
1539.802
1539.468
1539.486
1538.493
1538.51
1538.477
1538.495
1539.45
1539.468
1539.78
1539.798
1539.781
1539.799
1539.456
1539.474
1538.473
1538.49
1538.475
1538.493
1539.463
1539.481
1539.782
1539.8
1539.783
1539.801
1539.463
1539.481
1538.475
1538.493
1538.473
1538.49
1539.456
1539.473
1539.78
1539.798
1539.78
1539.798
1539.45
1539.468
1538.477
1538.495
1538.493
1538.51
1539.468
1539.485
1539.784
1539.802
1539.786
1539.804
1539.469
1539.487
1538.475
1538.492
1538.468
1538.485
1539.449
1539.467
1539.769
1539.787
1539.734
1539.752
1539.236
1539.254
1537.614
1537.631
1536.732
1536.749
1536.566
1536.583
1537.485
1537.503
1539.176
1539.193
1539.7
1539.717
1539.74
1539.758
1539.414
1539.431
1538.405
1538.423
1538.411
1538.428
1539.426
1539.444
1539.758
1539.776
1539.758
1539.776
1539.434
1539.451
1538.439
1538.456
1538.416
1538.433
1539.407
1539.425
1539.751
1539.769
1539.754
1539.772
1539.421
1539.439
1538.412
1538.429
1538.414
1538.431
1539.424
1539.442
1539.756
1539.774
1539.756
1539.774
1539.424
1539.442
1538.414
1538.431
1538.412
1538.429
1539.421
1539.439
1539.754
1539.772
1539.752
1539.769
1539.407
1539.425
1538.417
1538.434
1538.439
1538.457
1539.434
1539.452
1539.758
1539.776
1539.757
1539.775
1539.426
1539.444
1538.41
1538.428
1538.405
1538.422
1539.413
1539.431
1539.739
1539.757
1539.698
1539.716
1539.175
1539.192
1537.485
1537.502
1536.565
1536.582
1536.407
1536.424
1537.357
1537.374
1539.106
1539.124
1539.662
1539.68
1539.711
1539.729
1539.38
1539.397
1538.351
1538.368
1538.351
1538.368
1539.379
1539.396
1539.727
1539.745
1539.732
1539.75
1539.4
1539.417
1538.382
1538.399
1538.359
1538.376
1539.365
1539.382
1539.723
1539.741
1539.728
1539.746
1539.386
1539.404
1538.355
1538.373
1538.355
1538.372
1539.381
1539.398
1539.728
1539.746
1539.728
1539.746
1539.381
1539.399
1538.355
1538.373
1538.355
1538.372
1539.386
1539.403
1539.728
1539.746
1539.723
1539.74
1539.365
1539.383
1538.359
1538.376
1538.381
1538.399
1539.399
1539.417
1539.732
1539.75
1539.728
1539.746
1539.38
1539.397
1538.352
1538.369
1538.352
1538.369
1539.38
1539.398
1539.712
1539.73
1539.664
1539.682
1539.109
1539.127
1537.361
1537.378
1536.411
1536.428
1536.26
1536.277
1537.239
1537.256
1539.042
1539.059
1539.629
1539.647
1539.686
1539.704
1539.351
1539.369
1538.311
1538.328
1538.299
1538.316
1539.334
1539.352
1539.7
1539.718
1539.707
1539.725
1539.367
1539.385
1538.33
1538.347
1538.306
1538.323
1539.326
1539.343
1539.695
1539.713
1539.701
1539.719
1539.352
1539.37
1538.303
1538.32
1538.299
1538.317
1539.338
1539.356
1539.699
1539.717
1539.699
1539.717
1539.338
1539.356
1538.299
1538.317
1538.303
1538.32
1539.353
1539.37
1539.702
1539.72
1539.695
1539.713
1539.326
1539.344
1538.306
1538.323
1538.33
1538.348
1539.367
1539.385
1539.707
1539.725
1539.7
1539.718
1539.335
1539.352
1538.3
1538.317
1538.311
1538.328
1539.351
1539.369
1539.686
1539.704
1539.63
1539.648
1539.043
1539.061
1537.241
1537.258
1536.263
1536.28
1536.112
1536.129
1537.103
1537.121
1538.944
1538.961
1539.584
1539.602
1539.656
1539.673
1539.316
1539.333
1538.26
1538.277
1538.243
1538.261
1539.273
1539.291
1539.665
1539.683
1539.678
1539.695
1539.322
1539.34
1538.272
1538.289
1538.251
1538.269
1539.275
1539.293
1539.663
1539.681
1539.673
1539.69
1539.309
1539.327
1538.251
1538.269
1538.246
1538.263
1539.285
1539.303
1539.667
1539.685
1539.667
1539.685
1539.286
1539.303
1538.246
1538.263
1538.251
1538.268
1539.309
1539.326
1539.673
1539.69
1539.663
1539.681
1539.275
1539.293
1538.252
1538.269
1538.272
1538.289
1539.322
1539.34
1539.677
1539.695
1539.665
1539.683
1539.274
1539.291
1538.244
1538.261
1538.26
1538.277
1539.316
1539.333
1539.656
1539.674
1539.585
1539.603
1538.945
1538.963
1537.106
1537.123
1536.115
1536.132
1535.95
1535.966
1536.93
1536.947
1538.789
1538.807
1539.524
1539.542
1539.619
1539.637
1539.264
1539.282
1538.203
1538.22
1538.183
1538.201
1539.194
1539.212
1539.625
1539.642
1539.643
1539.661
1539.259
1539.277
1538.211
1538.228
1538.191
1538.208
1539.206
1539.223
1539.625
1539.643
1539.637
1539.654
1539.243
1539.261
1538.192
1538.209
1538.185
1538.202
1539.215
1539.233
1539.628
1539.646
1539.628
1539.646
1539.216
1539.233
1538.185
1538.202
1538.192
1538.209
1539.242
1539.26
1539.636
1539.654
1539.625
1539.643
1539.206
1539.223
1538.191
1538.208
1538.21
1538.227
1539.259
1539.277
1539.643
1539.661
1539.625
1539.643
1539.194
1539.212
1538.184
1538.201
1538.203
1538.22
1539.264
1539.282
1539.62
1539.638
1539.525
1539.543
1538.791
1538.808
1536.933
1536.95
1535.952
1535.969
1535.754
1535.771
1536.722
1536.739
1538.611
1538.629
1539.45
1539.468
1539.574
1539.592
1539.195
1539.212
1538.132
1538.15
1538.107
1538.125
1539.102
1539.12
1539.575
1539.593
1539.599
1539.617
1539.181
1539.199
1538.136
1538.153
1538.116
1538.134
1539.123
1539.141
1539.58
1539.597
1539.593
1539.611
1539.163
1539.181
1538.121
1538.139
1538.113
1538.131
1539.136
1539.153
1539.584
1539.602
1539.584
1539.602
1539.136
1539.154
1538.114
1538.131
1538.121
1538.139
1539.163
1539.181
1539.593
1539.611
1539.58
1539.598
1539.123
1539.141
1538.117
1538.135
1538.136
1538.154
1539.182
1539.2
1539.6
1539.617
1539.575
1539.592
1539.102
1539.119
1538.107
1538.124
1538.131
1538.149
1539.194
1539.211
1539.573
1539.59
1539.448
1539.466
1538.61
1538.628
1536.721
1536.738
1535.753
1535.77
1535.448
1535.465
1536.3
1536.317
1538.097
1538.115
1539.303
1539.321
1539.471
1539.489
1538.989
1539.006
1538.007
1538.025
1537.972
1537.99
1538.858
1538.876
1539.477
1539.494
1539.505
1539.523
1538.96
1538.978
1538.006
1538.024
1537.986
1538.003
1538.896
1538.914
1539.485
1539.503
1539.499
1539.517
1538.938
1538.956
1537.993
1538.01
1537.984
1538.001
1538.911
1538.929
1539.49
1539.507
1539.49
1539.508
1538.911
1538.929
1537.984
1538.001
1537.992
1538.009
1538.938
1538.956
1539.499
1539.517
1539.485
1539.503
1538.897
1538.914
1537.985
1538.003
1538.006
1538.023
1538.96
1538.977
1539.505
1539.523
1539.477
1539.495
1538.859
1538.877
1537.974
1537.991
1538.008
1538.026
1538.989
1539.007
1539.473
1539.491
1539.306
1539.324
1538.101
1538.119
1536.305
1536.322
1535.454
1535.47
1534.942
1534.959
1535.659
1535.676
1537.301
1537.318
1538.962
1538.98
1539.212
1539.229
1538.601
1538.619
1537.745
1537.763
1537.701
1537.719
1538.46
1538.477
1539.224
1539.241
1539.257
1539.275
1538.567
1538.584
1537.736
1537.753
1537.715
1537.732
1538.508
1538.525
1539.235
1539.253
1539.249
1539.267
1538.544
1538.561
1537.721
1537.738
1537.713
1537.73
1538.522
1538.539
1539.239
1539.257
1539.239
1539.257
1538.522
1538.54
1537.713
1537.73
1537.72
1537.738
1538.544
1538.562
1539.249
1539.267
1539.235
1539.253
1538.508
1538.526
1537.715
1537.733
1537.736
1537.753
1538.567
1538.584
1539.257
1539.275
1539.224
1539.242
1538.461
1538.478
1537.702
1537.719
1537.746
1537.763
1538.601
1538.619
1539.212
1539.23
1538.964
1538.981
1537.303
1537.321
1535.662
1535.679
1534.946
1534.963
1539.103
1539.15
1539.195
1539.238
1539.279
1539.316
1539.35
1539.382
1539.41
1539.435
1539.456
1539.475
1539.491
1539.504
1539.515
1539.523
1539.53
1539.534
1539.537
1539.538
1539.923
1539.973
1540.022
1540.069
1540.113
1540.153
1540.19
1540.222
1540.251
1540.275
1540.295
1540.312
1540.324
1540.334
1540.341
1540.345
1540.348
1540.35
1540.351
1540.353
1540.394
1540.446
1540.497
1540.548
1540.597
1540.644
1540.687
1540.725
1540.758
1540.786
1540.809
1540.826
1540.84
1540.849
1540.856
1540.86
1540.863
1540.864
1540.864
1540.863
1540.409
1540.46
1540.51
1540.559
1540.606
1540.649
1540.689
1540.724
1540.754
1540.778
1540.797
1540.811
1540.821
1540.828
1540.831
1540.833
1540.833
1540.832
1540.83
1540.828
1540.4
1540.451
1540.502
1540.551
1540.598
1540.641
1540.681
1540.717
1540.747
1540.772
1540.792
1540.807
1540.817
1540.824
1540.829
1540.831
1540.831
1540.83
1540.829
1540.827
1540.391
1540.442
1540.494
1540.544
1540.593
1540.639
1540.682
1540.72
1540.753
1540.781
1540.804
1540.821
1540.835
1540.844
1540.851
1540.855
1540.857
1540.858
1540.858
1540.857
1540.004
1540.053
1540.101
1540.146
1540.188
1540.228
1540.264
1540.297
1540.327
1540.353
1540.375
1540.395
1540.411
1540.424
1540.435
1540.443
1540.45
1540.454
1540.458
1540.46
1540.032
1540.081
1540.129
1540.174
1540.217
1540.257
1540.294
1540.327
1540.356
1540.382
1540.405
1540.424
1540.44
1540.453
1540.464
1540.472
1540.478
1540.483
1540.486
1540.488
1540.393
1540.444
1540.495
1540.546
1540.595
1540.641
1540.683
1540.721
1540.754
1540.781
1540.804
1540.821
1540.834
1540.844
1540.85
1540.854
1540.856
1540.857
1540.856
1540.856
1540.398
1540.449
1540.499
1540.548
1540.595
1540.639
1540.679
1540.714
1540.744
1540.769
1540.789
1540.804
1540.814
1540.821
1540.825
1540.827
1540.828
1540.827
1540.825
1540.823
1540.398
1540.449
1540.499
1540.548
1540.595
1540.638
1540.678
1540.713
1540.744
1540.768
1540.788
1540.803
1540.814
1540.821
1540.825
1540.827
1540.827
1540.827
1540.825
1540.823
1540.391
1540.443
1540.494
1540.544
1540.593
1540.639
1540.681
1540.719
1540.752
1540.78
1540.802
1540.819
1540.833
1540.842
1540.848
1540.852
1540.854
1540.855
1540.855
1540.854
1540.022
1540.071
1540.119
1540.164
1540.207
1540.246
1540.283
1540.316
1540.345
1540.371
1540.394
1540.413
1540.429
1540.442
1540.453
1540.461
1540.467
1540.472
1540.475
1540.478
1540.026
1540.076
1540.123
1540.168
1540.211
1540.25
1540.287
1540.32
1540.349
1540.375
1540.398
1540.417
1540.433
1540.446
1540.457
1540.465
1540.471
1540.476
1540.479
1540.482
1540.391
1540.443
1540.494
1540.544
1540.593
1540.639
1540.681
1540.719
1540.752
1540.779
1540.802
1540.819
1540.832
1540.842
1540.848
1540.852
1540.854
1540.855
1540.855
1540.854
1540.398
1540.449
1540.499
1540.548
1540.594
1540.638
1540.678
1540.713
1540.743
1540.768
1540.787
1540.802
1540.813
1540.82
1540.824
1540.826
1540.827
1540.826
1540.824
1540.822
1540.398
1540.448
1540.498
1540.547
1540.594
1540.638
1540.677
1540.713
1540.743
1540.767
1540.787
1540.802
1540.813
1540.82
1540.824
1540.826
1540.827
1540.826
1540.824
1540.822
1540.391
1540.442
1540.493
1540.544
1540.592
1540.638
1540.68
1540.718
1540.751
1540.779
1540.801
1540.819
1540.832
1540.841
1540.847
1540.851
1540.854
1540.854
1540.854
1540.853
1540.024
1540.073
1540.121
1540.166
1540.208
1540.248
1540.284
1540.317
1540.347
1540.373
1540.395
1540.414
1540.43
1540.444
1540.454
1540.462
1540.469
1540.473
1540.476
1540.479
1540.026
1540.075
1540.122
1540.167
1540.21
1540.249
1540.286
1540.319
1540.348
1540.374
1540.397
1540.416
1540.432
1540.445
1540.456
1540.464
1540.47
1540.475
1540.478
1540.48
1540.391
1540.442
1540.493
1540.544
1540.592
1540.638
1540.68
1540.718
1540.751
1540.779
1540.801
1540.819
1540.832
1540.841
1540.847
1540.851
1540.853
1540.854
1540.854
1540.853
1540.398
1540.448
1540.498
1540.547
1540.594
1540.637
1540.677
1540.712
1540.742
1540.767
1540.787
1540.802
1540.812
1540.82
1540.824
1540.826
1540.826
1540.826
1540.824
1540.822
1540.398
1540.448
1540.498
1540.547
1540.594
1540.637
1540.677
1540.712
1540.742
1540.767
1540.787
1540.802
1540.812
1540.82
1540.824
1540.826
1540.826
1540.826
1540.824
1540.822
1540.391
1540.442
1540.493
1540.544
1540.592
1540.638
1540.68
1540.718
1540.751
1540.779
1540.801
1540.819
1540.832
1540.841
1540.847
1540.851
1540.853
1540.854
1540.854
1540.853
1540.026
1540.075
1540.122
1540.167
1540.21
1540.249
1540.286
1540.319
1540.348
1540.374
1540.397
1540.416
1540.432
1540.445
1540.455
1540.464
1540.47
1540.475
1540.478
1540.48
1540.023
1540.073
1540.12
1540.165
1540.208
1540.247
1540.284
1540.317
1540.346
1540.372
1540.395
1540.414
1540.43
1540.443
1540.454
1540.462
1540.468
1540.473
1540.476
1540.479
1540.391
1540.442
1540.493
1540.543
1540.592
1540.638
1540.68
1540.718
1540.751
1540.779
1540.801
1540.819
1540.832
1540.841
1540.847
1540.851
1540.854
1540.854
1540.854
1540.853
1540.398
1540.448
1540.498
1540.547
1540.594
1540.637
1540.677
1540.712
1540.743
1540.767
1540.787
1540.802
1540.813
1540.82
1540.824
1540.826
1540.827
1540.826
1540.824
1540.822
1540.398
1540.449
1540.499
1540.547
1540.594
1540.638
1540.678
1540.713
1540.743
1540.768
1540.787
1540.802
1540.813
1540.82
1540.824
1540.826
1540.827
1540.826
1540.824
1540.822
1540.391
1540.443
1540.494
1540.544
1540.593
1540.639
1540.681
1540.719
1540.752
1540.779
1540.802
1540.819
1540.832
1540.842
1540.848
1540.852
1540.854
1540.855
1540.855
1540.854
1540.025
1540.074
1540.122
1540.167
1540.21
1540.249
1540.286
1540.319
1540.348
1540.374
1540.397
1540.416
1540.432
1540.445
1540.456
1540.464
1540.47
1540.475
1540.478
1540.481
1540.02
1540.07
1540.117
1540.162
1540.205
1540.245
1540.281
1540.314
1540.344
1540.37
1540.392
1540.412
1540.428
1540.441
1540.452
1540.46
1540.466
1540.471
1540.474
1540.477
1540.39
1540.442
1540.493
1540.543
1540.592
1540.638
1540.681
1540.719
1540.752
1540.779
1540.802
1540.819
1540.833
1540.842
1540.848
1540.852
1540.854
1540.855
1540.855
1540.854
1540.398
1540.448
1540.498
1540.547
1540.594
1540.638
1540.678
1540.713
1540.743
1540.768
1540.788
1540.803
1540.814
1540.821
1540.825
1540.827
1540.827
1540.827
1540.825
1540.823
1540.399
1540.45
1540.5
1540.549
1540.595
1540.639
1540.679
1540.714
1540.744
1540.769
1540.789
1540.804
1540.814
1540.821
1540.825
1540.827
1540.828
1540.827
1540.825
1540.823
1540.393
1540.445
1540.496
1540.546
1540.595
1540.641
1540.683
1540.721
1540.754
1540.782
1540.804
1540.821
1540.834
1540.844
1540.85
1540.854
1540.856
1540.857
1540.856
1540.856
1540.033
1540.082
1540.13
1540.175
1540.218
1540.258
1540.294
1540.328
1540.357
1540.383
1540.406
1540.425
1540.441
1540.454
1540.464
1540.472
1540.479
1540.483
1540.487
1540.489
1540.005
1540.054
1540.102
1540.147
1540.189
1540.229
1540.265
1540.298
1540.327
1540.353
1540.376
1540.395
1540.411
1540.425
1540.435
1540.444
1540.45
1540.455
1540.458
1540.461
1540.391
1540.443
1540.494
1540.544
1540.593
1540.64
1540.682
1540.72
1540.753
1540.781
1540.804
1540.821
1540.835
1540.844
1540.851
1540.855
1540.857
1540.858
1540.858
1540.857
1540.402
1540.453
1540.503
1540.552
1540.598
1540.642
1540.682
1540.717
1540.747
1540.772
1540.792
1540.807
1540.817
1540.824
1540.828
1540.831
1540.831
1540.83
1540.829
1540.826
1540.411
1540.462
1540.512
1540.561
1540.607
1540.651
1540.69
1540.725
1540.754
1540.778
1540.797
1540.811
1540.821
1540.827
1540.831
1540.833
1540.833
1540.832
1540.83
1540.828
1540.397
1540.448
1540.5
1540.55
1540.599
1540.645
1540.688
1540.726
1540.759
1540.787
1540.809
1540.827
1540.84
1540.849
1540.856
1540.86
1540.863
1540.864
1540.864
1540.863
1539.93
1539.979
1540.028
1540.074
1540.118
1540.158
1540.194
1540.227
1540.255
1540.279
1540.299
1540.316
1540.328
1540.338
1540.345
1540.349
1540.352
1540.354
1540.355
1540.356
1539.114
1539.161
1539.206
1539.249
1539.289
1539.326
1539.36
1539.391
1539.419
1539.444
1539.465
1539.484
1539.5
1539.513
1539.524
1539.532
1539.538
1539.543
1539.545
1539.547
1539.374
1539.422
1539.468
1539.513
1539.555
1539.595
1539.631
1539.665
1539.696
1539.723
1539.747
1539.767
1539.785
1539.799
1539.81
1539.819
1539.825
1539.829
1539.831
1539.831
1539.935
1539.985
1540.034
1540.081
1540.127
1540.17
1540.21
1540.246
1540.28
1540.309
1540.335
1540.358
1540.377
1540.392
1540.404
1540.414
1540.421
1540.425
1540.428
1540.429
1540.332
1540.383
1540.434
1540.484
1540.532
1540.578
1540.622
1540.662
1540.7
1540.733
1540.763
1540.789
1540.812
1540.832
1540.849
1540.863
1540.875
1540.885
1540.894
1540.903
1540.362
1540.412
1540.462
1540.51
1540.557
1540.601
1540.643
1540.681
1540.715
1540.746
1540.774
1540.797
1540.817
1540.834
1540.848
1540.859
1540.868
1540.876
1540.882
1540.887
1540.352
1540.402
1540.452
1540.5
1540.547
1540.591
1540.633
1540.671
1540.706
1540.738
1540.765
1540.789
1540.81
1540.827
1540.842
1540.854
1540.864
1540.872
1540.878
1540.884
1540.314
1540.365
1540.416
1540.466
1540.514
1540.56
1540.604
1540.644
1540.682
1540.716
1540.746
1540.773
1540.797
1540.817
1540.835
1540.85
1540.863
1540.874
1540.884
1540.893
1539.918
1539.967
1540.014
1540.06
1540.103
1540.144
1540.182
1540.217
1540.249
1540.278
1540.303
1540.325
1540.344
1540.36
1540.373
1540.383
1540.391
1540.397
1540.4
1540.402
1539.952
1540.001
1540.049
1540.095
1540.139
1540.18
1540.219
1540.254
1540.287
1540.316
1540.342
1540.364
1540.383
1540.399
1540.412
1540.422
1540.43
1540.435
1540.439
1540.441
1540.319
1540.37
1540.421
1540.47
1540.518
1540.564
1540.608
1540.648
1540.686
1540.719
1540.749
1540.776
1540.799
1540.819
1540.836
1540.851
1540.863
1540.874
1540.884
1540.893
1540.349
1540.399
1540.449
1540.497
1540.544
1540.588
1540.63
1540.668
1540.703
1540.734
1540.762
1540.786
1540.807
1540.824
1540.839
1540.85
1540.86
1540.868
1540.875
1540.88
1540.348
1540.398
1540.448
1540.496
1540.543
1540.587
1540.629
1540.667
1540.702
1540.733
1540.761
1540.785
1540.806
1540.823
1540.838
1540.85
1540.86
1540.868
1540.874
1540.88
1540.315
1540.365
1540.416
1540.466
1540.514
1540.56
1540.603
1540.644
1540.681
1540.715
1540.745
1540.772
1540.795
1540.816
1540.833
1540.848
1540.86
1540.872
1540.881
1540.891
1539.933
1539.982
1540.03
1540.076
1540.119
1540.16
1540.199
1540.234
1540.266
1540.295
1540.321
1540.343
1540.362
1540.378
1540.391
1540.401
1540.409
1540.414
1540.418
1540.42
1539.94
1539.989
1540.037
1540.083
1540.126
1540.168
1540.206
1540.241
1540.274
1540.303
1540.328
1540.351
1540.37
1540.386
1540.399
1540.409
1540.417
1540.422
1540.426
1540.427
1540.315
1540.366
1540.417
1540.466
1540.515
1540.561
1540.604
1540.645
1540.682
1540.716
1540.746
1540.773
1540.796
1540.816
1540.833
1540.848
1540.861
1540.872
1540.881
1540.89
1540.347
1540.397
1540.447
1540.495
1540.542
1540.586
1540.628
1540.666
1540.701
1540.733
1540.76
1540.784
1540.805
1540.822
1540.837
1540.849
1540.859
1540.867
1540.873
1540.879
1540.346
1540.396
1540.446
1540.494
1540.541
1540.586
1540.627
1540.666
1540.701
1540.732
1540.76
1540.784
1540.804
1540.822
1540.836
1540.849
1540.858
1540.866
1540.873
1540.879
1540.313
1540.364
1540.415
1540.465
1540.513
1540.559
1540.603
1540.643
1540.681
1540.714
1540.745
1540.771
1540.795
1540.815
1540.832
1540.847
1540.86
1540.871
1540.881
1540.89
1539.934
1539.983
1540.03
1540.076
1540.12
1540.161
1540.2
1540.235
1540.267
1540.296
1540.322
1540.344
1540.363
1540.379
1540.392
1540.403
1540.41
1540.416
1540.419
1540.421
1539.936
1539.985
1540.033
1540.079
1540.123
1540.164
1540.202
1540.238
1540.27
1540.299
1540.325
1540.347
1540.366
1540.382
1540.395
1540.405
1540.413
1540.418
1540.422
1540.424
1540.313
1540.364
1540.415
1540.465
1540.513
1540.559
1540.603
1540.643
1540.681
1540.715
1540.745
1540.772
1540.795
1540.815
1540.832
1540.847
1540.86
1540.871
1540.881
1540.89
1540.345
1540.396
1540.446
1540.494
1540.541
1540.585
1540.627
1540.665
1540.7
1540.732
1540.76
1540.784
1540.804
1540.822
1540.836
1540.848
1540.858
1540.866
1540.873
1540.878
1540.345
1540.396
1540.446
1540.494
1540.541
1540.585
1540.627
1540.665
1540.7
1540.732
1540.76
1540.784
1540.804
1540.822
1540.836
1540.848
1540.858
1540.866
1540.873