/*--------------------------------*- C++ -*----------------------------------*\
| =========                 |                                                 |
| \\      /  F ield         | OpenFOAM: The Open Source CFD Toolbox           |
|  \\    /   O peration     | Version:  4.0                                   |
|   \\  /    A nd           | Web:      www.OpenFOAM.org                      |
|    \\/     M anipulation  |                                                 |
\*---------------------------------------------------------------------------*/
FoamFile
{
    version     2.0;
    format      ascii;
    class       surfaceScalarField;
    location    "120/fuel";
    object      phi;
}
// * * * * * * * * * * * * * * * * * * * * * * * * * * * * * * * * * * * * * //

dimensions      [1 0 -1 0 0 0 0];

internalField   nonuniform List<scalar> 
111448
(
8.039771e-12
3.803109e-11
-4.399938e-11
1.125456e-10
-1.304812e-10
2.597543e-11
2.652384e-11
2.650371e-11
-1.293145e-11
7.900129e-11
-3.772715e-11
9.779528e-11
4.236423e-11
2.762911e-12
-1.656595e-11
8.974553e-12
-4.722339e-11
1.596144e-10
1.932323e-11
2.679708e-12
-1.718076e-11
8.790992e-12
-4.879914e-11
6.830593e-11
1.194898e-11
2.15149e-12
-9.354082e-12
6.520844e-12
-2.510545e-11
3.932457e-11
2.326895e-11
-3.682986e-12
-1.537012e-11
-1.051311e-11
-4.302137e-11
8.332428e-11
3.139633e-11
8.689992e-12
-4.169991e-11
2.575067e-11
-1.226372e-10
1.177698e-10
3.148906e-11
1.13924e-11
-3.212065e-11
3.343593e-11
-9.401634e-11
1.178201e-10
3.748609e-11
1.092552e-13
-2.413716e-11
1.081791e-12
-6.919297e-11
1.390332e-10
1.190568e-11
2.612202e-12
-1.233505e-11
7.93957e-12
-3.389647e-11
3.894437e-11
6.553417e-12
3.254377e-12
-5.112765e-12
9.016015e-12
-1.186368e-11
1.734066e-11
3.402687e-11
-5.979504e-12
-2.272445e-11
-1.731304e-11
-6.476154e-11
1.251175e-10
3.468485e-11
2.310611e-12
-4.090061e-11
6.829207e-12
-1.199397e-10
1.304824e-10
3.464907e-11
7.896289e-12
-3.815952e-11
2.295178e-11
-1.117648e-10
1.302913e-10
3.646125e-11
-1.95944e-12
-2.453546e-11
-5.00147e-12
-7.015716e-11
1.345717e-10
6.31971e-12
5.626486e-13
-6.75884e-12
1.726873e-12
-1.691486e-11
1.650623e-11
6.590611e-12
2.266151e-12
-6.210087e-12
5.949972e-12
-1.517341e-11
1.754093e-11
3.578378e-11
-7.049927e-12
-2.439732e-11
-2.043696e-11
-6.970912e-11
1.318798e-10
3.523898e-11
3.911017e-13
-4.060448e-11
1.121768e-12
-1.190047e-10
1.326849e-10
3.541381e-11
7.068692e-12
-4.001559e-11
2.047101e-11
-1.172538e-10
1.333184e-10
3.60976e-11
-2.33599e-12
-2.462212e-11
-6.088014e-12
-7.036352e-11
1.330201e-10
5.449145e-12
1.338756e-14
-5.713445e-12
4.764603e-14
-1.366817e-11
1.298165e-11
5.531186e-12
2.329658e-12
-5.762461e-12
6.068074e-12
-1.381868e-11
1.332944e-11
3.612087e-11
-7.095444e-12
-2.462502e-11
-2.058094e-11
-7.037889e-11
1.331488e-10
3.539651e-11
-4.054995e-13
-4.001082e-11
-1.203368e-12
-1.172421e-10
1.33261e-10
3.524328e-11
7.042408e-12
-4.061567e-11
2.038456e-11
-1.19039e-10
1.326944e-10
3.578188e-11
-2.25774e-12
-2.441134e-11
-5.943163e-12
-6.975428e-11
1.318639e-10
6.59921e-12
-5.265195e-13
-6.246427e-12
-1.63335e-12
-1.528627e-11
1.757566e-11
6.314587e-12
2.000815e-12
-6.758987e-12
5.105781e-12
-1.691658e-11
1.649204e-11
3.647906e-11
-7.875454e-12
-2.453286e-11
-2.291491e-11
-7.014968e-11
1.346494e-10
3.46571e-11
-2.306749e-12
-3.815068e-11
-6.842804e-12
-1.117396e-10
1.303246e-10
3.467028e-11
6.00062e-12
-4.090335e-11
1.735724e-11
-1.19951e-10
1.304212e-10
3.402673e-11
-3.220706e-12
-2.273695e-11
-8.928915e-12
-6.480287e-11
1.251158e-10
6.65861e-12
-2.591771e-12
-5.204885e-12
-7.889959e-12
-1.214627e-11
1.776592e-11
1.188571e-11
-1.058693e-13
-1.229806e-11
-1.084215e-12
-3.378413e-11
3.886409e-11
3.750592e-11
-1.142319e-11
-2.412287e-11
-3.354465e-11
-6.915018e-11
1.391165e-10
3.14803e-11
-8.717226e-12
-3.211549e-11
-2.58472e-11
-9.400224e-11
1.177851e-10
3.13722e-11
3.68571e-12
-4.170578e-11
1.051373e-11
-1.226598e-10
1.176711e-10
2.328926e-11
-2.127884e-12
-1.541141e-11
-6.450492e-12
-4.314742e-11
8.340091e-11
1.196395e-11
-2.673032e-12
-9.352198e-12
-8.761263e-12
-2.510285e-11
3.937757e-11
1.937072e-11
-2.819852e-12
-1.716471e-11
-9.143542e-12
-4.87606e-11
6.85136e-11
4.231342e-11
-2.652118e-11
-1.655473e-11
-7.906713e-11
-4.71941e-11
1.594311e-10
2.643969e-11
-3.798961e-11
-1.290636e-11
-1.124286e-10
-3.767377e-11
9.747488e-11
8.061059e-12
-4.397933e-11
-1.304269e-10
2.605943e-11
2.455219e-11
-1.941072e-11
-4.706019e-11
-5.921881e-11
-1.383857e-10
9.167543e-11
9.545546e-11
-1.154711e-10
-1.02283e-11
-3.403359e-10
-2.772497e-11
3.665704e-10
-3.852098e-11
-1.100519e-10
1.865016e-11
-3.236959e-10
5.868026e-11
-1.610646e-10
-1.065652e-10
-4.515529e-11
2.660641e-11
-1.322965e-10
8.179404e-11
-4.285578e-10
-9.635047e-11
1.464102e-11
2.93126e-11
4.365456e-11
8.964877e-11
-3.870558e-10
-7.343714e-11
4.854846e-11
2.627001e-11
1.430474e-10
8.063585e-11
-2.964872e-10
3.890257e-11
-6.521423e-12
-2.344369e-11
-2.015547e-11
-6.834986e-11
1.47818e-10
5.017471e-11
-8.00391e-11
-6.676206e-12
-2.364238e-10
-1.791168e-11
1.903383e-10
-6.698488e-11
-6.76062e-11
3.253507e-11
-1.990566e-10
9.954831e-11
-2.730933e-10
-1.044118e-10
-1.031361e-11
3.690356e-11
-3.020906e-11
1.119789e-10
-4.191347e-10
-1.005206e-10
4.87891e-11
3.842422e-11
1.438406e-10
1.165478e-10
-4.029817e-10
-7.206062e-11
6.712011e-11
3.312474e-11
1.982656e-10
1.012627e-10
-2.925099e-10
4.598012e-11
-2.620082e-12
-1.504248e-11
-8.094139e-12
-4.306546e-11
1.754656e-10
4.695627e-11
-7.559222e-11
-1.004154e-11
-2.234419e-10
-2.806316e-11
1.786025e-10
-7.114603e-11
-6.143264e-11
3.457295e-11
-1.809531e-10
1.056187e-10
-2.894107e-10
-1.031698e-10
-2.4124e-12
3.951116e-11
-7.044528e-12
1.197026e-10
-4.136958e-10
-1.011534e-10
5.570237e-11
3.894887e-11
1.641543e-10
1.180158e-10
-4.055415e-10
-7.110153e-11
7.07217e-11
3.380629e-11
2.090362e-10
1.032699e-10
-2.889625e-10
4.570341e-11
-8.503768e-13
-1.263527e-11
-2.58844e-12
-3.583958e-11
1.74163e-10
4.592116e-11
-7.310628e-11
-1.157924e-11
-2.161212e-10
-3.269431e-11
1.748944e-10
-7.119394e-11
-5.861147e-11
3.419895e-11
-1.727296e-10
1.044643e-10
-2.894133e-10
-1.015351e-10
1.948421e-14
3.931128e-11
4.502128e-14
1.190948e-10
-4.070728e-10
-1.015533e-10
5.863479e-11
3.929604e-11
1.727741e-10
1.19045e-10
-4.071461e-10
-7.113539e-11
7.308025e-11
3.418678e-11
2.160212e-10
1.044247e-10
-2.891861e-10
4.594925e-11
7.893015e-13
-1.156757e-11
2.382266e-12
-3.265877e-11
1.750049e-10
4.562165e-11
-7.070053e-11
-1.26469e-11
-2.090029e-10
-3.587561e-11
1.738434e-10
-7.113368e-11
-5.565894e-11
3.380209e-11
-1.640423e-10
1.03255e-10
-2.891036e-10
-1.011101e-10
2.392043e-12
3.893295e-11
6.980802e-12
1.179652e-10
-4.053846e-10
-1.031799e-10
6.143162e-11
3.950172e-11
1.809448e-10
1.196719e-10
-4.137323e-10
-7.11836e-11
7.563164e-11
3.457265e-11
2.235355e-10
1.056148e-10
-2.895388e-10
4.697222e-11
2.646259e-12
-1.003543e-11
8.138406e-12
-2.804634e-11
1.786761e-10
4.59978e-11
-6.711518e-11
-1.504175e-11
-1.982906e-10
-4.30673e-11
1.755432e-10
-7.201637e-11
-4.881343e-11
3.309715e-11
-1.439323e-10
1.011783e-10
-2.923559e-10
-1.005856e-10
1.027857e-11
3.840776e-11
3.010974e-11
1.164987e-10
-4.032726e-10
-1.044537e-10
6.760188e-11
3.695179e-11
1.990499e-10
1.121231e-10
-4.193012e-10
-6.706886e-11
8.008737e-11
3.258077e-11
2.365535e-10
9.968466e-11
-2.734073e-10
5.020382e-11
6.533876e-12
-6.66434e-12
2.017694e-11
-1.787658e-11
1.904548e-10
3.88713e-11
-4.851705e-11
-2.343723e-11
-1.429691e-10
-6.833573e-11
1.476933e-10
-7.346748e-11
-1.461823e-11
2.626767e-11
-4.359195e-11
8.062767e-11
-2.966198e-10
-9.639515e-11
4.521893e-11
2.931824e-11
1.324857e-10
8.966671e-11
-3.872424e-10
-1.065555e-10
1.101057e-10
2.662253e-11
3.238561e-10
8.183248e-11
-4.28519e-10
-3.840891e-11
1.154239e-10
1.865045e-11
3.401922e-10
5.866924e-11
-1.606083e-10
9.548228e-11
1.937341e-11
-1.023992e-11
5.910376e-11
-2.777293e-11
3.666698e-10
2.453625e-11
-4.706162e-11
-1.383961e-10
9.160919e-11
-4.442292e-12
-2.561217e-11
-1.491723e-11
-7.781205e-11
-4.328558e-11
-2.173035e-11
3.323003e-11
-8.049331e-11
1.352604e-11
-2.385501e-10
4.262112e-11
1.23622e-10
-6.92292e-11
-4.305774e-11
5.256252e-11
-1.283389e-10
1.583232e-10
-2.790834e-10
-5.862854e-11
-5.963725e-12
5.025525e-11
-1.80386e-11
1.510181e-10
-2.381529e-10
-1.273528e-11
-6.107645e-12
4.429323e-11
-1.77378e-11
1.329017e-10
-5.628901e-11
-2.682374e-11
3.69236e-12
4.539639e-11
1.118891e-11
1.361448e-10
-1.112594e-10
-1.389113e-11
-1.286594e-11
9.094365e-12
-3.872973e-11
2.745586e-11
-5.977822e-11
-6.80134e-12
-3.409515e-11
2.345396e-11
-1.014115e-10
7.080285e-11
-3.283407e-11
-4.96533e-11
-1.122885e-11
6.143881e-11
-3.405608e-11
1.841371e-10
-2.015975e-10
-2.728255e-11
-2.802937e-12
5.786996e-11
-8.385373e-12
1.732313e-10
-1.142057e-10
-1.318911e-11
-5.116936e-12
5.603482e-11
-1.430635e-11
1.677274e-10
-5.844771e-11
-3.880627e-11
1.091002e-11
5.801749e-11
3.285992e-11
1.737615e-10
-1.584713e-10
-1.639746e-11
-4.061556e-12
1.842033e-11
-1.223175e-11
5.531912e-11
-6.969037e-11
-1.500277e-11
-1.99781e-11
2.297632e-11
-5.973439e-11
6.901717e-11
-6.458046e-11
-4.469031e-11
-2.562025e-13
6.165825e-11
-1.633457e-12
1.846396e-10
-1.818122e-10
-1.694034e-11
-3.423176e-13
5.864649e-11
-1.018398e-12
1.754319e-10
-7.328475e-11
-1.325338e-11
-3.711549e-12
5.767957e-11
-1.011426e-11
1.725373e-10
-5.867894e-11
-4.124721e-11
1.32748e-11
6.018252e-11
3.987137e-11
1.801843e-10
-1.681473e-10
-1.752472e-11
-9.291467e-13
2.118953e-11
-2.814343e-12
6.360766e-11
-7.428624e-11
-1.753222e-11
-1.513494e-11
2.225628e-11
-4.541103e-11
6.679662e-11
-7.442646e-11
-4.269865e-11
2.813368e-12
6.106553e-11
7.441454e-12
1.828306e-10
-1.739174e-10
-1.413847e-11
1.823549e-14
5.835326e-11
4.778335e-14
1.745385e-10
-6.218851e-11
-1.413807e-11
-2.775449e-12
5.833615e-11
-7.348088e-12
1.744895e-10
-6.218667e-11
-4.267511e-11
1.51483e-11
6.105433e-11
4.542031e-11
1.827989e-10
-1.738176e-10
-1.749364e-11
9.126777e-13
2.225915e-11
2.730308e-12
6.680732e-11
-7.426974e-11
-1.753973e-11
-1.328106e-11
2.118274e-11
-3.991578e-11
6.358796e-11
-7.435722e-11
-4.12765e-11
3.728287e-12
6.018466e-11
1.014699e-11
1.801918e-10
-1.68276e-10
-1.325947e-11
3.50375e-13
5.767845e-11
1.031408e-12
1.72533e-10
-5.871169e-11
-1.691484e-11
2.395773e-13
5.863624e-11
1.577729e-12
1.754015e-10
-7.319075e-11
-4.467749e-11
1.9951e-11
6.16556e-11
5.963983e-11
1.846304e-10
-1.817553e-10
-1.503074e-11
4.065686e-12
2.297916e-11
1.222112e-11
6.902496e-11
-6.468332e-11
-1.640891e-11
-1.08973e-11
1.842394e-11
-3.283272e-11
5.532685e-11
-6.974922e-11
-3.879151e-11
5.111992e-12
5.799281e-11
1.4285e-11
1.73684e-10
-1.58415e-10
-1.315746e-11
2.78229e-12
5.600242e-11
8.312376e-12
1.676345e-10
-5.832065e-11
-2.728799e-11
1.123137e-11
5.790049e-11
3.404126e-11
1.733214e-10
-1.142152e-10
-4.964037e-11
3.410132e-11
6.146792e-11
1.014126e-10
1.842242e-10
-2.015512e-10
-6.78668e-12
1.286161e-11
2.346167e-11
3.870252e-11
7.082617e-11
-3.277933e-11
-1.389136e-11
-3.699802e-12
9.104167e-12
-1.122057e-11
2.748303e-11
-5.978703e-11
-2.688846e-11
6.143686e-12
4.541534e-11
1.783603e-11
1.362006e-10
-1.11518e-10
-1.276016e-11
6.030225e-12
4.429331e-11
1.822476e-11
1.329044e-10
-5.638659e-11
-5.858638e-11
4.309753e-11
5.025591e-11
1.284471e-10
1.510172e-10
-2.379934e-10
-6.920313e-11
8.050375e-11
5.256612e-11
2.385836e-10
1.583311e-10
-2.790015e-10
3.326062e-11
2.559836e-11
1.350808e-11
7.778315e-11
4.256181e-11
1.237263e-10
-4.449308e-12
-1.492546e-11
-4.331466e-11
-2.174759e-11
-2.074657e-11
-1.015128e-11
1.806917e-11
-3.157939e-11
5.420927e-11
-8.666201e-11
-7.491061e-12
-2.859322e-11
4.155932e-11
-8.648348e-11
1.25026e-10
-3.499185e-11
-3.958487e-11
-5.717947e-12
7.138765e-11
-1.824493e-11
2.137471e-10
-1.632473e-10
-2.305183e-11
8.887013e-12
6.081123e-11
2.593167e-11
1.821567e-10
-9.836699e-11
8.972749e-12
-5.213009e-13
4.682176e-11
-1.636199e-12
1.40133e-10
2.930926e-11
-4.381922e-12
1.590087e-12
4.976185e-11
4.957765e-12
1.488833e-10
-2.37143e-11
-8.036039e-12
-7.200699e-12
2.800412e-11
-2.167298e-11
8.363241e-11
-3.758185e-11
-4.176007e-12
-1.724294e-11
3.976655e-11
-5.179161e-11
1.19149e-10
-2.240352e-11
-1.899177e-11
-3.014278e-12
6.831216e-11
-9.458018e-12
2.044037e-10
-8.159198e-11
-1.008011e-12
-3.476363e-13
5.831247e-11
-1.069647e-12
1.745006e-10
-1.066566e-11
9.641725e-12
-6.224199e-12
5.436791e-11
-1.821488e-11
1.626696e-10
3.184468e-11
-1.098237e-11
2.236237e-12
6.26452e-11
7.060595e-12
1.873864e-10
-4.988278e-11
-1.07755e-11
-2.376596e-12
3.589703e-11
-7.187397e-12
1.072312e-10
-4.843958e-11
-8.668046e-12
-8.180151e-12
3.954092e-11
-2.474978e-11
1.182091e-10
-4.029764e-11
-1.444483e-11
2.679638e-12
6.735305e-11
7.648713e-12
2.014576e-10
-6.366128e-11
6.370692e-12
-3.445404e-13
5.73998e-11
-1.01057e-12
1.716944e-10
1.876753e-11
8.96578e-12
-5.634529e-12
5.610286e-11
-1.64276e-11
1.677978e-10
2.912225e-11
-1.256818e-11
3.807842e-12
6.541643e-11
1.172957e-11
1.956446e-10
-5.61856e-11
-1.048837e-11
-6.059547e-13
3.81825e-11
-1.849009e-12
1.140778e-10
-4.737997e-11
-1.011737e-11
-5.210727e-12
3.907054e-11
-1.591984e-11
1.167456e-10
-4.599554e-11
-1.332184e-11
4.788984e-12
6.649677e-11
1.391942e-11
1.98878e-10
-5.920856e-11
8.532308e-12
4.146277e-16
5.670904e-11
-4.611559e-15
1.696111e-10
2.73838e-11
8.499745e-12
-4.762192e-12
5.669851e-11
-1.385587e-11
1.695807e-10
2.725979e-11
-1.331379e-11
5.226469e-12
6.648854e-11
1.59383e-11
1.988534e-10
-5.916252e-11
-1.007509e-11
5.845585e-13
3.906822e-11
1.752119e-12
1.167403e-10
-4.582189e-11
-1.050788e-11
-3.8076e-12
3.817363e-11
-1.175134e-11
1.140518e-10
-4.746821e-11
-1.259349e-11
5.656013e-12
6.542275e-11
1.647588e-11
1.956637e-10
-5.629266e-11
8.966459e-12
3.514937e-13
5.61157e-11
1.017224e-12
1.678346e-10
2.912345e-11
6.37162e-12
-2.678256e-12
5.739422e-11
-7.661651e-12
1.716789e-10
1.877306e-11
-1.444079e-11
8.180004e-12
6.734789e-11
2.472475e-11
2.014421e-10
-6.36389e-11
-8.667378e-12
2.380837e-12
3.95387e-11
7.16855e-12
1.182025e-10
-4.028878e-11
-1.075906e-11
-2.250585e-12
3.590289e-11
-7.12325e-12
1.072475e-10
-4.83879e-11
-1.098484e-11
6.208966e-12
6.262397e-11
1.816413e-11
1.873207e-10
-4.990884e-11
9.617698e-12
3.458515e-13
5.434607e-11
1.062319e-12
1.625999e-10
3.175417e-11
-1.002136e-12
3.016154e-12
5.833344e-11
9.45427e-12
1.745625e-10
-1.063514e-11
-1.898469e-11
1.72525e-11
6.832648e-11
5.180338e-11
2.04447e-10
-8.155667e-11
-4.151244e-12
7.194518e-12
3.976521e-11
2.163959e-11
1.19145e-10
-2.230625e-11
-8.01249e-12
-1.610617e-12
2.800471e-11
-5.026569e-12
8.363267e-11
-3.749596e-11
-4.424351e-12
5.310536e-13
4.979304e-11
1.658715e-12
1.489761e-10
-2.388514e-11
8.932329e-12
-8.843171e-12
4.682821e-11
-2.580733e-11
1.401514e-10
2.915137e-11
-2.302112e-11
5.751784e-12
6.079121e-11
1.833683e-11
1.820964e-10
-9.824451e-11
-3.956864e-11
2.861313e-11
7.138889e-11
8.653647e-11
2.137488e-10
-1.63186e-10
-7.498885e-12
1.016627e-11
4.155405e-11
3.162801e-11
1.2501e-10
-3.503861e-11
-2.073656e-11
1.806599e-11
5.41982e-11
-8.662142e-11
-1.177044e-11
8.200755e-13
3.110236e-11
1.447366e-12
9.275297e-11
-5.176151e-11
-7.502473e-12
-2.265529e-12
5.424303e-11
-8.309929e-12
1.623248e-10
-3.504402e-11
-9.521264e-12
8.261059e-12
7.249186e-11
2.359175e-11
2.169371e-10
-4.461296e-11
-6.176856e-13
1.001049e-11
6.178216e-11
2.946684e-11
1.849284e-10
-9.264527e-12
1.72745e-11
-4.1263e-12
4.577033e-11
-1.217294e-11
1.368942e-10
6.215315e-11
7.332335e-12
-8.299648e-12
4.869002e-11
-2.437584e-11
1.455628e-10
2.285569e-11
-6.436339e-12
-4.330851e-12
3.255129e-11
-1.321272e-11
9.710063e-11
-3.106768e-11
-5.729139e-12
-8.390028e-13
4.409371e-11
-3.239607e-12
1.319278e-10
-2.848105e-11
-1.400839e-12
4.737095e-12
6.624041e-11
1.360631e-11
1.98225e-10
-1.206808e-11
8.849361e-12
1.788808e-13
5.611547e-11
4.770854e-13
1.679112e-10
2.856796e-11
1.57509e-11
-1.050122e-11
5.138786e-11
-3.087754e-11
1.53675e-10
5.610017e-11
3.370802e-12
-9.30134e-12
6.017185e-11
-2.705633e-11
1.800038e-10
6.93223e-12
-8.926144e-12
-1.710317e-12
3.931673e-11
-5.17909e-12
1.173238e-10
-4.0896e-11
-7.317796e-12
4.486262e-12
4.275029e-11
1.269275e-11
1.276891e-10
-3.466955e-11
1.238573e-12
7.547538e-12
6.515534e-11
2.204635e-11
1.949231e-10
-1.580549e-12
1.274969e-11
-2.791611e-13
5.456936e-11
-8.362905e-13
1.632124e-10
4.411433e-11
1.489494e-11
-1.021794e-11
5.323838e-11
-3.002489e-11
1.591956e-10
5.268582e-11
2.183211e-12
-8.03088e-12
6.314603e-11
-2.326609e-11
1.888877e-10
2.181306e-12
-8.974719e-12
-3.67409e-13
4.158023e-11
-1.124412e-12
1.241007e-10
-4.113924e-11
-8.464843e-12
6.885922e-12
4.236948e-11
1.984345e-11
1.264948e-10
-3.918187e-11
1.824292e-12
9.333053e-12
6.432629e-11
2.73859e-11
1.924232e-10
7.366525e-13
1.429061e-11
8.865505e-15
5.383459e-11
2.246408e-14
1.609831e-10
5.028207e-11
1.42857e-11
-9.312619e-12
5.382624e-11
-2.733747e-11
1.609591e-10
5.026725e-11
1.825204e-12
-6.87223e-12
6.432385e-11
-1.982731e-11
1.924163e-10
7.521706e-13
-8.461378e-12
3.746334e-13
4.237026e-11
1.112863e-12
1.264981e-10
-3.915934e-11
-8.975116e-12
8.03163e-12
4.157831e-11
2.324422e-11
1.240927e-10
-4.114741e-11
2.176565e-12
1.022336e-11
6.315442e-11
3.002751e-11
1.889098e-10
2.147157e-12
1.487714e-11
2.895125e-13
5.326415e-11
8.556068e-13
1.5927e-10
5.261368e-11
1.27521e-11
-7.544457e-12
5.456869e-11
-2.205485e-11
1.632101e-10
4.413134e-11
1.242477e-12
-4.489744e-12
6.515292e-11
-1.27307e-11
1.949158e-10
-1.5553e-12
-7.322832e-12
1.714182e-12
4.274583e-11
5.156144e-12
1.276756e-10
-3.468276e-11
-8.935222e-12
9.318522e-12
3.931844e-11
2.707237e-11
1.173293e-10
-4.093325e-11
3.384581e-12
1.050995e-11
6.014539e-11
3.088274e-11
1.799277e-10
6.967173e-12
1.576185e-11
-1.892663e-13
5.137427e-11
-5.133844e-13
1.536334e-10
5.612439e-11
8.850002e-12
-4.738956e-12
5.612735e-11
-1.362197e-11
1.679474e-10
2.857368e-11
-1.391385e-12
8.38718e-13
6.624373e-11
3.224626e-12
1.982343e-10
-1.202521e-11
-5.736006e-12
4.325519e-12
4.410432e-11
1.318227e-11
1.319581e-10
-2.850674e-11
-6.43177e-12
8.297183e-12
3.254448e-11
2.435572e-11
9.707948e-11
-3.105204e-11
7.330879e-12
4.139969e-12
4.870662e-11
1.220296e-11
1.456137e-10
2.284608e-11
1.726459e-11
-9.984672e-12
4.577454e-11
-2.939303e-11
1.369038e-10
6.210815e-11
-5.872204e-13
-8.253431e-12
6.174996e-11
-2.357199e-11
1.848302e-10
-9.142005e-12
-9.491639e-12
2.250049e-12
7.248666e-11
8.25875e-12
2.169187e-10
-4.44923e-11
-7.515352e-12
-8.260081e-13
5.424119e-11
-1.46517e-12
1.623189e-10
-3.510033e-11
-1.177748e-11
3.110038e-11
9.274552e-11
-5.178997e-11
-6.412434e-12
3.195335e-12
3.639765e-11
8.89155e-12
1.085479e-10
-3.109888e-11
-4.84351e-12
5.891175e-12
5.848208e-11
1.640466e-11
1.748827e-10
-2.491451e-11
-2.115591e-12
1.174721e-11
7.085504e-11
3.430447e-11
2.12045e-10
-1.512324e-11
3.246802e-12
1.066091e-11
6.171894e-11
3.137559e-11
1.847693e-10
6.334831e-12
1.28532e-11
6.959944e-13
4.496302e-11
1.907638e-12
1.344556e-10
4.475972e-11
6.30044e-12
-3.475357e-12
4.864222e-11
-1.029042e-11
1.453039e-10
1.875739e-11
-5.788753e-13
-2.806582e-12
3.453638e-11
-8.450589e-12
1.030683e-10
-8.3864e-12
-2.443925e-12
-2.453423e-13
4.606198e-11
-1.174865e-12
1.377736e-10
-1.556546e-11
-8.466852e-14
4.119245e-12
6.405824e-11
1.199177e-11
1.916978e-10
-6.724081e-12
7.09055e-12
9.847758e-13
5.424782e-11
2.885933e-12
1.62267e-10
2.18406e-11
1.099616e-11
-5.993129e-12
4.94537e-11
-1.78106e-11
1.478464e-10
3.75213e-11
2.781616e-12
-4.843894e-12
5.833185e-11
-1.433151e-11
1.744875e-10
4.818796e-12
-2.235815e-12
-1.281058e-12
4.006924e-11
-3.856578e-12
1.196212e-10
-1.500814e-11
-2.488319e-12
2.219415e-12
4.382131e-11
6.361628e-12
1.309213e-10
-1.593876e-11
1.530349e-12
5.056971e-12
6.288323e-11
1.490631e-11
1.881329e-10
-2.241865e-13
9.479054e-12
-9.993831e-14
5.23333e-11
-3.138789e-13
1.565034e-10
3.140825e-11
1.051423e-11
-6.433125e-12
5.114243e-11
-1.907601e-11
1.529087e-10
3.556323e-11
2.165685e-12
-4.394268e-12
6.103477e-11
-1.291603e-11
1.825723e-10
2.321053e-12
-2.660297e-12
-4.643008e-13
4.239191e-11
-1.385761e-12
1.265713e-10
-1.666122e-11
-2.888685e-12
3.671127e-12
4.320517e-11
1.073802e-11
1.290307e-10
-1.754843e-11
1.773811e-12
6.127742e-12
6.219036e-11
1.814368e-11
1.860482e-10
7.431861e-13
1.035147e-11
-1.337577e-15
5.169771e-11
-7.352436e-15
1.545688e-10
3.491673e-11
1.034707e-11
-6.123722e-12
5.168704e-11
-1.814426e-11
1.54538e-10
3.490507e-11
1.771367e-12
-3.657627e-12
6.218084e-11
-1.07221e-11
1.860219e-10
7.435737e-13
-2.894261e-12
4.835612e-13
4.320571e-11
1.411462e-12
1.290336e-10
-1.756326e-11
-2.649842e-12
4.396892e-12
4.239619e-11
1.289782e-11
1.265813e-10
-1.662484e-11
2.162488e-12
6.428978e-12
6.105316e-11
1.904777e-11
1.826229e-10
2.29948e-12
1.050944e-11
1.002091e-13
5.116859e-11
3.044033e-13
1.529861e-10
3.553665e-11
9.482829e-12
-5.059316e-12
5.233146e-11
-1.492891e-11
1.564974e-10
3.14288e-11
1.527363e-12
-2.217909e-12
6.287978e-11
-6.382315e-12
1.881222e-10
-2.256811e-13
-2.494911e-12
1.29085e-12
4.381525e-11
3.855324e-12
1.309022e-10
-1.595912e-11
-2.225716e-12
4.847221e-12
4.006743e-11
1.431974e-11
1.196159e-10
-1.497676e-11
2.776397e-12
5.989537e-12
5.831764e-11
1.778931e-11
1.744455e-10
4.789019e-12
1.098457e-11
-9.81293e-13
4.944473e-11
-2.881208e-12
1.478183e-10
3.747019e-11
7.095889e-12
-4.111383e-12
5.424974e-11
-1.197842e-11
1.622735e-10
2.186706e-11
-7.668901e-14
2.430674e-13
6.406347e-11
1.149034e-12
1.917117e-10
-6.681588e-12
-2.444942e-12
2.79312e-12
4.608454e-11
8.389258e-12
1.378393e-10
-1.556642e-11
-5.812327e-13
3.458333e-12
3.453524e-11
1.022366e-11
1.030625e-10
-8.398621e-12
6.278542e-12
-6.761534e-13
4.864367e-11
-1.860756e-12
1.453105e-10
1.866619e-11
1.283293e-11
-1.062472e-11
4.497095e-11
-3.127335e-11
1.344753e-10
4.467403e-11
3.2641e-12
-1.173452e-11
6.169237e-11
-3.426837e-11
1.846841e-10
6.405229e-12
-2.101979e-12
-5.888951e-12
7.084612e-11
-1.640084e-11
2.120152e-10
-1.506606e-11
-4.849975e-12
-3.190322e-12
5.848337e-11
-8.877841e-12
1.748845e-10
-2.493862e-11
-6.412207e-12
3.63999e-11
1.08552e-10
-3.109649e-11
-3.168396e-12
4.334617e-12
3.730455e-11
1.252958e-11
1.112782e-10
-1.842836e-11
-3.138247e-12
9.458529e-12
5.858298e-11
2.741963e-11
1.751552e-10
-1.830073e-11
1.409926e-12
1.273673e-11
6.826386e-11
3.754013e-11
2.043086e-10
-9.741911e-13
5.57125e-12
1.048347e-11
6.049253e-11
3.09952e-11
1.811564e-10
1.572903e-11
1.144634e-11
1.820262e-12
4.42557e-11
5.313409e-12
1.323327e-10
3.925103e-11
7.485784e-12
-3.131359e-12
4.818329e-11
-9.373586e-12
1.439281e-10
2.354858e-11
1.298643e-12
-1.713414e-12
3.388965e-11
-5.19198e-12
1.011809e-10
-9.955838e-13
-1.940959e-12
2.818929e-12
4.555152e-11
8.016944e-12
1.361666e-10
-1.354289e-11
1.909319e-12
5.462389e-12
6.159698e-11
1.60584e-11
1.843259e-10
1.239798e-12
7.745762e-12
1.290702e-12
5.275642e-11
3.802999e-12
1.577474e-10
2.452073e-11
9.400554e-12
-4.538512e-12
4.796058e-11
-1.352081e-11
1.433602e-10
3.121048e-11
3.941704e-12
-4.004397e-12
5.59411e-11
-1.190477e-11
1.673464e-10
9.466758e-12
5.104626e-13
-7.307629e-13
3.835971e-11
-2.226319e-12
1.145464e-10
-4.093222e-12
-7.440643e-13
3.410623e-12
4.250263e-11
9.923815e-12
1.270159e-10
-8.98882e-12
3.080345e-12
5.057832e-12
6.02455e-11
1.495878e-11
1.802486e-10
5.929723e-12
8.870004e-12
6.454191e-14
5.053718e-11
1.844073e-13
1.51101e-10
2.904675e-11
9.274066e-12
-5.397604e-12
4.941032e-11
-1.604571e-11
1.477183e-10
3.06946e-11
3.440898e-12
-4.242012e-12
5.852613e-11
-1.254835e-11
1.750878e-10
7.428097e-12
-1.681679e-13
-2.453929e-13
4.064048e-11
-7.479757e-13
1.213928e-10
-6.790051e-12
-3.631452e-13
3.920033e-12
4.148102e-11
1.151337e-11
1.239228e-10
-7.516577e-12
3.379224e-12
5.285733e-12
5.953449e-11
1.567326e-11
1.781136e-10
7.153988e-12
9.09921e-12
-1.136126e-15
4.996564e-11
-8.635084e-15
1.493754e-10
2.99745e-11
9.096554e-12
-5.285437e-12
4.995504e-11
-1.56871e-11
1.493434e-10
2.996958e-11
3.381702e-12
-3.914139e-12
5.951685e-11
-1.152188e-11
1.780619e-10
7.176474e-12
-3.687834e-13
2.617439e-13
4.14767e-11
7.629196e-13
1.239112e-10
-7.531237e-12
-1.606143e-13
4.247884e-12
4.064769e-11
1.254011e-11
1.214125e-10
-6.768941e-12
3.443258e-12
5.392924e-12
5.85524e-11
1.601703e-11
1.751643e-10
7.424989e-12
9.270826e-12
-6.030005e-14
4.943048e-11
-1.827995e-13
1.477795e-10
3.067731e-11
8.874753e-12
-5.057013e-12
5.053398e-11
-1.497278e-11
1.510906e-10
2.907158e-11
3.093912e-12
-3.422582e-12
6.024121e-11
-9.983584e-12
1.802343e-10
5.992628e-12
-7.453428e-13
7.186844e-13
4.249794e-11
2.16283e-12
1.270008e-10
-8.990373e-12
5.091588e-13
3.994162e-12
3.835728e-11
1.185208e-11
1.145384e-10
-4.102542e-12
3.930467e-12
4.532098e-12
5.593422e-11
1.348736e-11
1.673251e-10
9.415602e-12
9.393081e-12
-1.300076e-12
4.796198e-11
-3.838615e-12
1.43361e-10
3.117636e-11
7.738169e-12
-5.459364e-12
5.275348e-11
-1.605793e-11
1.577376e-10
2.449333e-11
1.899565e-12
-2.800415e-12
6.159639e-11
-7.974794e-12
1.843233e-10
1.204871e-12
-1.920695e-12
1.718114e-12
4.556757e-11
5.183484e-12
1.362147e-10
-1.345432e-11
1.31507e-12
3.120986e-12
3.388709e-11
9.319633e-12
1.011697e-10
-9.28299e-13
7.46249e-12
-1.795811e-12
4.817321e-11
-5.252015e-12
1.438962e-10
2.34484e-11
1.142173e-11
-1.044421e-11
4.427341e-11
-3.08809e-11
1.323811e-10
3.914487e-11
5.588534e-12
-1.272559e-11
6.047673e-11
-3.750781e-11
1.811018e-10
1.579775e-11
1.429423e-12
-9.460653e-12
6.824871e-11
-2.742747e-11
2.042596e-10
-8.953182e-13
-3.142541e-12
-4.334007e-12
5.858584e-11
-1.252831e-11
1.751606e-10
-1.831774e-11
-3.167477e-12
3.73064e-11
1.112803e-10
-1.842418e-11
-9.438573e-13
3.760252e-12
3.655683e-11
1.101437e-11
1.090732e-10
-9.753164e-12
-1.327199e-12
8.983623e-12
5.676932e-11
2.635635e-11
1.697132e-10
-1.122718e-11
2.227343e-12
1.130655e-11
6.580549e-11
3.35339e-11
1.969337e-10
2.424702e-12
5.524843e-12
9.542599e-12
5.881899e-11
2.843912e-11
1.760889e-10
1.568721e-11
8.673017e-12
3.118235e-12
4.407944e-11
9.233239e-12
1.317888e-10
2.842283e-11
6.636866e-12
-1.124438e-12
4.786015e-11
-3.686523e-12
1.430979e-10
2.038685e-11
2.028608e-12
-8.326354e-13
3.363523e-11
-2.702861e-12
1.004205e-10
1.805431e-12
-1.451658e-12
3.242103e-12
4.500599e-11
9.372338e-12
1.344235e-10
-1.178376e-11
1.733133e-12
5.478905e-12
5.971401e-11
1.616648e-11
1.786792e-10
5.856895e-13
6.820428e-12
1.674595e-12
5.181889e-11
4.895679e-12
1.549468e-10
2.089189e-11
7.210476e-12
-2.678369e-12
4.717684e-11
-8.041678e-12
1.410058e-10
2.250227e-11
3.62751e-12
-2.427121e-12
5.414293e-11
-7.233988e-12
1.619341e-10
8.232111e-12
1.352297e-12
-5.623835e-13
3.721279e-11
-1.676535e-12
1.111307e-10
-7.893821e-13
-1.767347e-13
2.993262e-12
4.119839e-11
8.791034e-12
1.231216e-10
-6.749989e-12
2.396927e-12
4.463652e-12
5.846307e-11
1.325841e-11
1.749129e-10
3.265278e-12
7.357209e-12
1.840238e-13
4.953553e-11
5.510956e-13
1.480793e-10
2.308622e-11
7.169115e-12
-3.910986e-12
4.841097e-11
-1.164626e-11
1.44709e-10
2.237577e-11
2.750803e-12
-2.703826e-12
5.665082e-11
-8.072969e-12
1.694952e-10
4.770113e-12
1.013548e-12
-1.762826e-13
3.917165e-11
-5.774816e-13
1.170135e-10
-2.102567e-12
5.222867e-13
2.884121e-12
3.997183e-11
8.511336e-12
1.194247e-10
-4.068405e-12
2.486918e-12
4.251564e-12
5.776394e-11
1.264499e-11
1.728192e-10
3.647589e-12
7.364224e-12
2.103052e-15
4.892608e-11
6.808394e-16
1.462626e-10
2.312138e-11
7.362709e-12
-4.252713e-12
4.892234e-11
-1.266469e-11
1.462501e-10
2.312145e-11
2.476325e-12
-2.878165e-12
5.774975e-11
-8.520186e-12
1.727769e-10
3.6168e-12
5.111548e-13
1.960703e-13
3.996479e-11
6.047237e-13
1.194048e-10
-4.107313e-12
1.023686e-12
2.706133e-12
3.918621e-11
8.05451e-12
1.170554e-10
-2.069056e-12
2.764999e-12
3.907187e-12
5.666905e-11
1.161916e-11
1.695494e-10
4.815254e-12
7.167078e-12
-1.76411e-13
4.842177e-11
-5.380542e-13
1.447417e-10
2.236206e-11
7.364883e-12
-4.466595e-12
4.953521e-11
-1.328305e-11
1.480768e-10
2.312363e-11
2.410457e-12
-3.012451e-12
5.846146e-11
-8.876413e-12
1.749078e-10
3.330361e-12
-1.711333e-13
5.411778e-13
4.119009e-11
1.578359e-12
1.230978e-10
-6.722931e-12
1.347382e-12
2.408395e-12
3.721279e-11
7.149026e-12
1.111295e-10
-8.143998e-13
3.607452e-12
2.678553e-12
5.413722e-11
8.025597e-12
1.619155e-10
8.140517e-12
7.196305e-12
-1.673208e-12
4.719122e-11
-4.901824e-12
1.410463e-10
2.243842e-11
6.829687e-12
-5.491018e-12
5.182018e-11
-1.621567e-11
1.549483e-10
2.093287e-11
1.738963e-12
-3.258567e-12
5.971192e-11
-9.439387e-12
1.786704e-10
6.155198e-13
-1.480463e-12
8.52842e-13
4.501417e-11
2.737475e-12
1.344491e-10
-1.189172e-11
2.004671e-12
1.165159e-12
3.363609e-11
3.785289e-12
1.004199e-10
1.706673e-12
6.636774e-12
-3.082884e-12
4.785558e-11
-9.134726e-12
1.430777e-10
2.037535e-11
8.674167e-12
-9.511081e-12
4.409983e-11
-2.83443e-11
1.318453e-10
2.841945e-11
5.535395e-12
-1.130037e-11
5.881798e-11
-3.351681e-11
1.760782e-10
1.573143e-11
2.236141e-12
-8.990396e-12
6.579447e-11
-2.637604e-11
1.968962e-10
2.458833e-12
-1.339551e-12
-3.758395e-12
5.677589e-11
-1.100907e-11
1.697293e-10
-1.127529e-11
-9.45166e-13
3.656184e-11
1.090841e-10
-9.758002e-12
6.015304e-13
2.923378e-12
3.509643e-11
8.641776e-12
1.047067e-10
-3.673796e-12
6.396405e-14
7.798835e-12
5.390842e-11
2.302013e-11
1.611175e-10
-5.71877e-12
2.436094e-12
9.682241e-12
6.357276e-11
2.88158e-11
1.902023e-10
3.371741e-12
5.488802e-12
7.677557e-12
5.741765e-11
2.309104e-11
1.717587e-10
1.554374e-11
6.536735e-12
3.193396e-12
4.409555e-11
9.622746e-12
1.31775e-10
2.001885e-11
5.244012e-12
9.42698e-13
4.69338e-11
2.398498e-12
1.404329e-10
1.513323e-11
2.810794e-12
6.292269e-13
3.319937e-11
1.51356e-12
9.908538e-11
5.030808e-12
-6.461959e-13
4.257342e-12
4.40978e-11
1.234548e-11
1.316283e-10
-8.682932e-12
2.124825e-12
5.874604e-12
5.805405e-11
1.735885e-11
1.736765e-10
2.114144e-12
6.702047e-12
2.293507e-12
5.077225e-11
6.685776e-12
1.518607e-10
2.046117e-11
6.352086e-12
-1.344481e-12
4.6532e-11
-4.109134e-12
1.390806e-10
1.907221e-11
4.024532e-12
-1.697805e-12
5.25476e-11
-5.054981e-12
1.571078e-10
9.79665e-12
2.055368e-12
-2.870923e-13
3.581275e-11
-8.330467e-13
1.069767e-10
1.987401e-12
8.18284e-13
2.836566e-12
3.932732e-11
8.385137e-12
1.175331e-10
-2.811438e-12
2.403788e-12
4.065589e-12
5.691083e-11
1.209216e-11
1.702847e-10
3.324886e-12
6.642637e-12
2.91191e-13
4.873921e-11
8.115257e-13
1.457158e-10
2.028672e-11
6.180948e-12