/*--------------------------------*- C++ -*----------------------------------*\
| =========                 |                                                 |
| \\      /  F ield         | OpenFOAM: The Open Source CFD Toolbox           |
|  \\    /   O peration     | Version:  4.0                                   |
|   \\  /    A nd           | Web:      www.OpenFOAM.org                      |
|    \\/     M anipulation  |                                                 |
\*---------------------------------------------------------------------------*/
FoamFile
{
    version     2.0;
    format      ascii;
    class       surfaceScalarField;
    location    "120/fuel";
    object      phi;
}
// * * * * * * * * * * * * * * * * * * * * * * * * * * * * * * * * * * * * * //

dimensions      [1 0 -1 0 0 0 0];

internalField   nonuniform List<scalar> 
111448
(
4.304229e-12
-3.809374e-13
2.514307e-13
-1.137308e-12
7.496547e-13
4.691883e-12
5.006536e-12
-1.773597e-12
6.533153e-13
-5.266188e-12
1.961873e-12
7.173544e-12
2.650071e-13
-9.916116e-13
3.332205e-12
-2.948528e-12
9.993538e-12
-1.204619e-11
1.019116e-13
-1.595146e-13
3.461443e-12
-4.744411e-13
1.038256e-11
-1.275475e-11
3.83194e-13
4.154077e-13
3.43493e-12
1.234037e-12
1.030301e-11
-1.16283e-11
2.262559e-13
1.278003e-12
3.280846e-12
3.795293e-12
9.839129e-12
-1.217412e-11
4.904698e-12
-4.446024e-14
6.889065e-13
-1.329884e-13
2.063727e-12
6.769249e-12
4.95742e-12
-1.435611e-12
7.097324e-13
-4.264061e-12
2.126852e-12
6.961641e-12
2.46418e-13
-6.208472e-13
3.309839e-12
-1.846123e-12
9.925706e-12
-1.209722e-11
3.368871e-13
-2.252818e-14
3.448864e-12
-6.69474e-14
1.03443e-11
-1.178658e-11
3.565838e-13
5.417228e-13
3.448172e-12
1.610754e-12
1.034216e-11
-1.166328e-11
2.312417e-13
1.362382e-12
3.303733e-12
4.046582e-12
9.907297e-12
-1.211189e-11
4.914197e-12
-4.973643e-15
7.129791e-13
-1.491206e-14
2.135996e-12
6.839696e-12
4.925118e-12
-1.387381e-12
7.180322e-13
-4.120736e-12
2.151225e-12
6.87971e-12
2.370483e-13
-5.751615e-13
3.306833e-12
-1.710059e-12
9.916531e-12
-1.209016e-11
3.457771e-13
-5.3476e-15
3.448379e-12
-1.583129e-14
1.034279e-11
-1.169124e-11
3.530888e-13
5.576373e-13
3.447777e-12
1.658132e-12
1.0341e-11
-1.166187e-11
2.310444e-13
1.372486e-12
3.304661e-12
4.076641e-12
9.910052e-12
-1.209752e-11
4.912582e-12
-1.497327e-15
7.165314e-13
-4.455245e-15
2.146633e-12
6.847047e-12
4.916866e-12
-1.381164e-12
7.183979e-13
-4.102306e-12
2.152276e-12
6.86244e-12
2.317092e-13
-5.67696e-13
3.305492e-12
-1.68793e-12
9.912539e-12
-1.20952e-11
3.489768e-13
-7.380506e-18
3.447077e-12
-2.143123e-17
1.033892e-11
-1.167786e-11
3.489163e-13
5.676868e-13
3.447064e-12
1.687905e-12
1.033889e-11
-1.16779e-11
2.314167e-13
1.381183e-12
3.305477e-12
4.102363e-12
9.912494e-12
-1.209552e-11
4.916408e-12
1.540838e-15
7.1838e-13
4.583804e-15
2.152223e-12
6.861965e-12
4.916657e-12
-1.372461e-12
7.165348e-13
-4.076567e-12
2.146642e-12
6.851163e-12
2.352435e-13
-5.576239e-13
3.304669e-12
-1.65809e-12
9.910074e-12
-1.209331e-11
3.570269e-13
5.413922e-15
3.447785e-12
1.60313e-14
1.034102e-11
-1.165812e-11
3.496418e-13
5.752517e-13
3.448355e-12
1.71033e-12
1.034272e-11
-1.168738e-11
2.35538e-13
1.387439e-12
3.306796e-12
4.120907e-12
9.916419e-12
-1.209147e-11
4.934284e-12
5.048249e-15
7.180317e-13
1.513271e-14
2.151224e-12
6.888841e-12
4.923744e-12
-1.362309e-12
7.129842e-13
-4.046367e-12
2.136011e-12
6.849229e-12
2.410686e-13
-5.416683e-13
3.303734e-12
-1.61059e-12
9.907299e-12
-1.210201e-11
3.662213e-13
2.259984e-14
3.448162e-12
6.716442e-14
1.034213e-11
-1.165367e-11
3.316333e-13
6.210148e-13
3.448822e-12
1.846629e-12
1.034417e-11
-1.179201e-11
2.407674e-13
1.435836e-12
3.309819e-12
4.264738e-12
9.925648e-12
-1.210299e-11
4.95196e-12
4.468722e-14
7.097275e-13
1.33695e-13
2.126836e-12
6.956171e-12
4.899413e-12
-1.277538e-12
6.888257e-13
-3.793849e-12
2.063475e-12
6.763487e-12
2.212982e-13
-4.148862e-13
3.280516e-12
-1.23246e-12
9.838116e-12
-1.21782e-11
3.69444e-13
1.594712e-13
3.434553e-12
4.742814e-13
1.030186e-11
-1.163915e-11
7.64157e-14
9.91236e-13
3.461087e-12
2.947362e-12
1.038148e-11
-1.277814e-11
2.378587e-13
1.773426e-12
3.331969e-12
5.265651e-12
9.992833e-12
-1.207326e-11
4.97866e-12
3.809214e-13
6.533062e-13
1.13725e-12
1.96184e-12
7.145225e-12
4.276101e-12
2.514097e-13
7.49588e-13
4.663759e-12
4.163211e-12
-7.695464e-13
1.026803e-12
-2.296276e-12
3.05656e-12
4.152576e-12
4.098385e-12
-1.328581e-12
1.348194e-12
-3.960515e-12
4.025252e-12
3.699247e-12
3.627981e-12
-6.600207e-13
3.353923e-12
-1.970886e-12
1.003664e-11
1.59524e-12
3.750552e-12
-1.216557e-13
3.505275e-12
-3.641583e-13
1.049276e-11
2.033638e-12
3.914607e-12
2.462294e-13
3.482809e-12
7.346044e-13
1.04251e-11
2.693761e-12
3.92387e-12
6.517889e-13
3.266045e-12
1.942708e-12
9.772096e-12
2.782793e-12
4.186892e-12
-7.887333e-14
1.465782e-12
-2.356076e-13
4.372e-12
4.056942e-12
4.168142e-12
-7.835148e-13
1.484867e-12
-2.336379e-12
4.429535e-12
3.966227e-12
3.885527e-12
-3.639948e-13
3.321548e-12
-1.087291e-12
9.938004e-12
2.624144e-12
3.910274e-12
-1.941287e-14
3.524674e-12
-5.791029e-14
1.054966e-11
2.675531e-12
3.929884e-12
3.100181e-13
3.519184e-12
9.262258e-13
1.053336e-11
2.754549e-12
3.927405e-12
6.995871e-13
3.306563e-12
2.086037e-12
9.893036e-12
2.781856e-12
4.176744e-12
-1.420544e-14
1.490172e-12
-4.224828e-14
4.444948e-12
3.996072e-12
4.176907e-12
-7.278731e-13
1.496308e-12
-2.170188e-12
4.463428e-12
3.992645e-12
3.918073e-12
-3.364667e-13
3.31798e-12
-1.00505e-12
9.927215e-12
2.742256e-12
3.928357e-12
-6.884749e-15
3.525303e-12
-2.049282e-14
1.055153e-11
2.735057e-12
3.943377e-12
3.199504e-13
3.523043e-12
9.558935e-13
1.054481e-11
2.763178e-12
3.934896e-12
7.080556e-13
3.312469e-12
2.11126e-12
9.910677e-12
2.778908e-12
4.18712e-12
-5.481256e-15
1.494223e-12
-1.627971e-14
4.45709e-12
4.004202e-12
4.187126e-12
-7.179372e-13
1.495678e-12
-2.140676e-12
4.461497e-12
4.002298e-12
3.932056e-12
-3.277752e-13
3.314671e-12
-9.792522e-13
9.917323e-12
2.765845e-12
3.94125e-12
-3.108494e-17
3.523717e-12
-9.189844e-17
1.054682e-11
2.754199e-12
3.941093e-12
3.277278e-13
3.523701e-12
9.791127e-13
1.054677e-11
2.753999e-12
3.93154e-12
7.179318e-13
3.314632e-12
2.140661e-12
9.917206e-12
2.765278e-12
4.186768e-12
5.500482e-15
1.49565e-12
1.633751e-14
4.461412e-12
4.001901e-12
4.187382e-12
-7.08064e-13
1.494237e-12
-2.111284e-12
4.457132e-12
4.004517e-12
3.924474e-12
-3.199976e-13
3.312499e-12
-9.560321e-13
9.910766e-12
2.768529e-12
3.93264e-12
6.820356e-15
3.523052e-12
2.030343e-14
1.054484e-11
2.752492e-12
3.928143e-12
3.363974e-13
3.525273e-12
1.004846e-12
1.055144e-11
2.734878e-12
3.917492e-12
7.278596e-13
3.317948e-12
2.170146e-12
9.927118e-12
2.741489e-12
4.176509e-12
1.420241e-14
1.496279e-12
4.22364e-14
4.463344e-12
3.992295e-12
4.172686e-12
-6.99605e-13
1.490186e-12
-2.086092e-12
4.444992e-12
3.992031e-12
3.923439e-12
-3.100437e-13
3.306583e-12
-9.263022e-13
9.893095e-12
2.777852e-12
3.929881e-12
1.935869e-14
3.519193e-12
5.774843e-14
1.053338e-11
2.75458e-12
3.910032e-12
3.639547e-13
3.524661e-12
1.087169e-12
1.054962e-11
2.675167e-12
3.884925e-12
7.836364e-13
3.321488e-12
2.336729e-12
9.937825e-12
2.623187e-12
4.167759e-12
7.908747e-14
1.484803e-12
2.361959e-13
4.42934e-12
3.965787e-12
4.187138e-12
-6.516708e-13
1.465757e-12
-1.942433e-12
4.371923e-12
4.057322e-12
3.923916e-12
-2.461625e-13
3.265992e-12
-7.344295e-13
9.771936e-12
2.782091e-12
3.914449e-12
1.215196e-13
3.482719e-12
3.637977e-13
1.042482e-11
2.693256e-12
3.74984e-12
6.597646e-13
3.505227e-12
1.970193e-12
1.04926e-11
2.032321e-12
3.630731e-12
1.328506e-12
3.35378e-12
3.960319e-12
1.003621e-11
1.597236e-12
4.101193e-12
7.694967e-13
1.348152e-12
2.296133e-12
4.025125e-12
3.702094e-12
4.162651e-12
1.026742e-12
3.056375e-12
4.151996e-12
4.121654e-12
-2.85444e-13
1.343694e-12
-8.519402e-13
4.003703e-12
4.026453e-12
3.996159e-12
-3.920503e-13
1.671715e-12
-1.173739e-12
4.98834e-12
3.354873e-12
4.162335e-12
-1.992522e-13
3.304824e-12
-5.986756e-13
9.890717e-12
3.733199e-12
4.059283e-12
9.013284e-15
3.560965e-12
2.486318e-14
1.066073e-11
3.267765e-12
4.172058e-12
1.132486e-13
3.527029e-12
3.378635e-13
1.0559e-11
3.72515e-12
4.320497e-12
1.487044e-13
3.211549e-12
4.452332e-13
9.610637e-12
4.374591e-12
4.130635e-12
-4.161703e-14
1.751507e-12
-1.239086e-13
5.226132e-12
3.845639e-12
4.113148e-12
-2.06901e-13
1.767887e-12
-6.189687e-13
5.275184e-12
3.762564e-12
4.27327e-12
-1.322768e-13
3.277879e-12
-3.957611e-13
9.80915e-12
4.178911e-12
4.153845e-12
-1.074425e-14
3.570321e-12
-3.227851e-14
1.068836e-11
3.651661e-12
4.165798e-12
1.026127e-13
3.560523e-12
3.069722e-13
1.065911e-11
3.700791e-12
4.299187e-12
1.586959e-13
3.25379e-12
4.752525e-13
9.736924e-12
4.287015e-12
4.11493e-12
-1.903293e-14
1.770456e-12
-5.648078e-14
5.282737e-12
3.808876e-12
4.109553e-12
-1.884295e-13
1.775446e-12
-5.635318e-13
5.297725e-12
3.782311e-12
4.27095e-12
-1.206067e-13
3.272225e-12
-3.606346e-13
9.792255e-12
4.203019e-12
4.150511e-12
-5.241651e-15
3.56956e-12
-1.572302e-14
1.068611e-11
3.671023e-12
4.153967e-12
1.078487e-13
3.565729e-12
3.225612e-13
1.067464e-11
3.685852e-12
4.277949e-12
1.681422e-13
3.261977e-12
5.032514e-13
9.761457e-12
4.246469e-12
4.108968e-12
-6.413016e-15
1.773644e-12
-1.905452e-14
5.29228e-12
3.796089e-12
4.107448e-12
-1.782878e-13
1.774801e-12
-5.334291e-13
5.295767e-12
3.787554e-12
4.272463e-12
-1.140754e-13
3.266589e-12
-3.411849e-13
9.775357e-12
4.222191e-12
4.148319e-12
-5.069038e-17
3.567188e-12
-1.513265e-16
1.067903e-11
3.67507e-12
4.148072e-12
1.140022e-13
3.567155e-12
3.409669e-13
1.067893e-11
3.674794e-12
4.271858e-12
1.782291e-13
3.266504e-12
5.332553e-13
9.775102e-12
4.221673e-12
4.107064e-12
6.337835e-15
1.774776e-12
1.883283e-14
5.295693e-12
3.787207e-12
4.109348e-12
-1.682048e-13
1.773658e-12
-5.034365e-13
5.292321e-12
3.796432e-12
4.27858e-12
-1.07908e-13
3.262048e-12
-3.227372e-13
9.76167e-12
4.246982e-12
4.154235e-12
5.175011e-15
3.565766e-12
1.552406e-14
1.067475e-11
3.68607e-12
4.150194e-12
1.206121e-13
3.569534e-12
3.606482e-13
1.068603e-11
3.670479e-12
4.270285e-12
1.884938e-13
3.272153e-12
5.637199e-13
9.792042e-12
4.202293e-12
4.109136e-12
1.908532e-14
1.775415e-12
5.663482e-14
5.297633e-12
3.781929e-12
4.115282e-12
-1.586368e-13
1.770463e-12
-4.750802e-13
5.28276e-12
3.809233e-12
4.299808e-12
-1.025823e-13
3.253833e-12
-3.068854e-13
9.737051e-12
4.287655e-12
4.166054e-12
1.071817e-14
3.560545e-12
3.219554e-14
1.065918e-11
3.701176e-12
4.153608e-12
1.322706e-13
3.570315e-12
3.957329e-13
1.068834e-11
3.651351e-12
4.272692e-12
2.068979e-13
3.27778e-12
6.189417e-13
9.808857e-12
4.178451e-12
4.112803e-12
4.155779e-14
1.767846e-12
1.23697e-13
5.275067e-12
3.762326e-12
4.130999e-12
-1.487141e-13
1.751455e-12
-4.452863e-13
5.225987e-12
3.845909e-12
4.320866e-12
-1.130973e-13
3.21154e-12
-3.374178e-13
9.610636e-12
4.374298e-12
4.171997e-12
-8.802387e-15
3.526992e-12
-2.423489e-14
1.055891e-11
3.724727e-12
4.058581e-12
1.993403e-13
3.56108e-12
5.989559e-13
1.06611e-11
3.266895e-12
4.160825e-12
3.920522e-13
3.304773e-12
1.173763e-12
9.890567e-12
3.731663e-12
3.994702e-12
2.85417e-13
1.67165e-12
8.518631e-13
4.988153e-12
3.353575e-12
4.121331e-12
1.343657e-12
4.003595e-12
4.025976e-12
4.12317e-12
-9.582776e-15
1.362467e-12
-2.883107e-14
4.058558e-12
4.097148e-12
4.057846e-12
1.283705e-13
1.658635e-12
3.778371e-13
4.947228e-12
3.692289e-12
4.573945e-12
1.009976e-13
3.027234e-12
2.982658e-13
9.061364e-12
5.482873e-12
4.57732e-12
3.062232e-14
3.3409e-12
9.083427e-14
1.000324e-11
5.442241e-12
4.591611e-12
-5.819372e-14
3.308644e-12
-1.724767e-13
9.906641e-12
5.507287e-12
4.628499e-12
-1.646618e-13
2.950261e-12
-4.883237e-13
8.83048e-12
5.7245e-12
4.136166e-12
-3.225081e-14
1.67284e-12
-9.621729e-14
4.990046e-12
3.980148e-12
4.122633e-12
1.227217e-13
1.683537e-12
3.629223e-13
5.022027e-12
3.916648e-12
4.58654e-12
6.020199e-14
3.0185e-12
1.778178e-13
9.03471e-12
5.546081e-12
4.576957e-12
-3.004333e-15
3.341785e-12
-9.095982e-15
1.000587e-11
5.446363e-12
4.584842e-12
-7.519986e-14
3.332284e-12
-2.229452e-13
9.977366e-12
5.48043e-12
4.614817e-12
-1.617359e-13
2.987409e-12
-4.793712e-13
8.941541e-12
5.66663e-12
4.135305e-12
-1.910486e-14
1.683956e-12
-5.679509e-14
5.023252e-12
3.972213e-12
4.132537e-12
1.336583e-13
1.687216e-12
3.957856e-13
5.033015e-12
3.944669e-12
4.601219e-12
6.27871e-14
3.010173e-12
1.857687e-13
9.009824e-12
5.593674e-12
4.584154e-12
-2.083723e-15
3.339659e-12
-6.299064e-15
9.999551e-12
5.462776e-12
4.588326e-12
-7.17485e-14
3.335908e-12
-2.125831e-13
9.988236e-12
5.48101e-12
4.613839e-12
-1.543505e-13
2.99738e-12
-4.573091e-13
8.971362e-12
5.648659e-12
4.147544e-12
-7.957152e-15
1.686378e-12
-2.359961e-14
5.030473e-12
3.975634e-12
4.146237e-12
1.41409e-13
1.686664e-12
4.189745e-13
5.03135e-12
3.968074e-12
4.617248e-12
6.596557e-14
3.003505e-12
1.954212e-13
8.989836e-12
5.626328e-12
4.595908e-12
-2.793186e-17
3.337384e-12
-8.379732e-17
9.992722e-12
5.47772e-12
4.59559e-12
-6.601231e-14
3.337342e-12
-1.955611e-13
9.992599e-12
5.477406e-12
4.616567e-12
-1.414905e-13
3.003386e-12
-4.192165e-13
8.989481e-12
5.625837e-12
4.145819e-12
7.846429e-15
1.686648e-12
2.32719e-14
5.031301e-12
3.967722e-12
4.148029e-12
1.542689e-13
1.686394e-12
4.570669e-13
5.030521e-12
3.976027e-12
4.625427e-12
7.167803e-14
2.9975e-12
2.123723e-13
8.971721e-12
5.660069e-12
4.599501e-12
2.028822e-15
3.335942e-12
6.134071e-15
9.988338e-12
5.492156e-12
4.583867e-12
-6.277783e-14
3.339612e-12
-1.857417e-13
9.999411e-12
5.462364e-12
4.600517e-12
-1.336199e-13
3.010049e-12
-3.956705e-13
9.009458e-12
5.59303e-12
4.1321e-12
1.913514e-14
1.687197e-12
5.688557e-14
5.032958e-12
3.944218e-12
4.140006e-12
1.617688e-13
1.683959e-12
4.79468e-13
5.023261e-12
3.976919e-12
4.619949e-12
7.512463e-14
2.987504e-12
2.227261e-13
8.941823e-12
5.671916e-12
4.585238e-12
2.907765e-15
3.332321e-12
8.814549e-15
9.977476e-12
5.480848e-12
4.576699e-12
-6.024981e-14
3.34179e-12
-1.779651e-13
1.000589e-11
5.445933e-12
4.585916e-12
-1.228815e-13
3.018451e-12
-3.634056e-13
9.034563e-12
5.545654e-12
4.122296e-12
3.202495e-14
1.683528e-12
9.555482e-14
5.022003e-12
3.916401e-12
4.136655e-12
1.644e-13
1.672868e-12
4.875504e-13
4.990138e-12
3.980505e-12
4.629263e-12
5.783191e-14
2.950374e-12
1.71394e-13
8.830829e-12
5.72523e-12
4.591535e-12
-3.087977e-14
3.308722e-12
-9.160567e-14
9.906888e-12
5.506551e-12
4.576672e-12
-1.009673e-13
3.340572e-12
-2.981948e-13
1.000228e-11
5.442087e-12
4.567866e-12
-1.282766e-13
3.027225e-12
-3.7756e-13
9.061343e-12
5.476451e-12
4.051908e-12
9.696758e-15
1.658664e-12
2.917855e-14
4.947322e-12
3.685995e-12
4.123072e-12
1.362497e-12
4.058653e-12
4.097191e-12
4.107976e-12
1.081376e-14
1.357586e-12
3.21071e-14
4.045138e-12
4.089284e-12
4.12483e-12
7.474963e-14
1.628193e-12
2.218319e-13
4.857295e-12
4.025039e-12
4.434995e-12
5.794806e-14
2.856504e-12
1.72931e-13
8.55009e-12
4.995173e-12
4.420571e-12
3.000153e-14
3.222499e-12
8.940237e-14
9.650771e-12
4.856568e-12
4.437169e-12
-9.058597e-15
3.193639e-12
-2.742194e-14
9.564421e-12
4.89621e-12
4.452647e-12
-5.587338e-14
2.801339e-12
-1.661865e-13
8.384747e-12
5.037148e-12
4.178031e-12
-9.824446e-15
1.635213e-12
-2.929903e-14
4.878782e-12
4.152411e-12
4.172049e-12
4.742237e-14
1.643106e-12
1.40793e-13
4.902418e-12
4.121567e-12
4.442966e-12
2.646578e-14
2.857189e-12
7.908313e-14
8.55192e-12
4.987459e-12
4.426232e-12
-1.070978e-15
3.227248e-12
-3.201292e-15
9.66498e-12
4.849411e-12
4.434105e-12
-3.387285e-14
3.214153e-12
-1.012414e-13
9.625832e-12
4.883678e-12
4.453615e-12
-6.761858e-14
2.825416e-12
-2.009135e-13
8.456752e-12
5.038085e-12
4.179445e-12
-1.545291e-14
1.640061e-12
-4.582041e-14
4.893361e-12
4.154243e-12
4.175936e-12
4.302661e-14
1.641755e-12
1.279923e-13
4.898461e-12
4.136679e-12
4.429891e-12
2.334273e-14
2.84974e-12
6.987835e-14
8.529869e-12
4.967965e-12
4.414211e-12
-1.671086e-15
3.223758e-12
-5.041449e-15
9.654676e-12
4.834005e-12
4.419566e-12
-3.25471e-14
3.219824e-12
-9.737012e-14
9.64279e-12
4.857337e-12
4.438112e-12
-6.339095e-14
2.837816e-12
-1.884869e-13
8.493913e-12
5.006678e-12
4.16879e-12
-1.029739e-14
1.641844e-12
-3.061741e-14
4.898672e-12
4.142725e-12
4.161311e-12
4.669926e-14
1.642379e-12
1.387943e-13
4.90026e-12
4.12299e-12
4.428328e-12
2.538671e-14
2.84166e-12
7.595538e-14
8.505567e-12
4.975438e-12
4.410835e-12
-3.242455e-17
3.220948e-12
-9.719704e-17
9.646188e-12
4.833415e-12
4.410501e-12
-2.546343e-14
3.220891e-12
-7.618465e-14
9.64602e-12
4.833169e-12
4.427477e-12
-4.681198e-14
2.841529e-12
-1.391296e-13
8.505174e-12
4.974726e-12
4.161026e-12
1.01528e-14
1.642367e-12
3.018776e-14
4.900223e-12
4.12279e-12
4.165392e-12
6.32845e-14
1.641856e-12
1.881698e-13
4.898709e-12
4.139226e-12
4.434984e-12
3.248846e-14
2.837952e-12
9.719397e-14
8.494319e-12
5.003368e-12
4.41594e-12
1.604106e-15
3.219867e-12
4.841407e-15
9.642918e-12
4.853713e-12
4.409867e-12
-2.335626e-14
3.223694e-12
-6.991829e-14
9.654485e-12
4.829553e-12
4.430197e-12
-4.298968e-14
2.849579e-12
-1.278815e-13
8.529389e-12
4.968232e-12
4.165949e-12
1.549812e-14
1.641735e-12
4.595607e-14
4.898402e-12
4.126667e-12
4.170515e-12
6.766993e-14
1.64006e-12
2.010677e-13
4.893358e-12
4.145307e-12
4.444971e-12
3.387409e-14
2.825543e-12
1.012404e-13
8.457132e-12
5.029487e-12
4.424932e-12
9.965215e-16
3.214208e-12
2.97289e-15
9.625997e-12
4.874685e-12
4.431017e-12
-2.652961e-14
3.22712e-12
-7.927005e-14
9.664599e-12
4.854553e-12
4.447234e-12
-4.743452e-14
2.857123e-12
-1.408195e-13
8.551721e-12
4.991624e-12
4.176639e-12
9.845072e-15
1.643061e-12
2.938143e-14
4.902286e-12
4.126155e-12
4.183601e-12
5.593944e-14
1.635222e-12
1.663981e-13
4.878808e-12
4.157914e-12
4.458457e-12
9.288758e-15
2.801392e-12
2.808601e-14
8.384905e-12
5.042694e-12
4.451215e-12
-2.973725e-14
3.193722e-12
-8.865278e-14
9.564673e-12
4.910168e-12
4.444266e-12
-5.796066e-14
3.222554e-12
-1.729853e-13
9.650933e-12
4.879947e-12
4.457707e-12
-7.483853e-14
2.856483e-12
-2.220985e-13
8.550036e-12
5.018131e-12
4.147302e-12
-1.087125e-14
1.628126e-12
-3.227953e-14
4.8571e-12
4.047703e-12
4.131809e-12
1.357552e-12
4.04504e-12
4.113148e-12
4.124345e-12
6.526546e-14
1.291085e-12
1.943686e-13
3.846906e-12
4.128214e-12
4.174027e-12
1.46068e-13
1.536618e-12
4.34565e-13
4.583907e-12
4.20722e-12
4.470488e-12
7.710445e-14
2.708148e-12
2.30251e-13
8.10562e-12
5.119278e-12
4.451543e-12
2.47598e-14
3.109369e-12
7.395203e-14
9.312697e-12
4.945911e-12
4.433987e-12
-1.7033e-14
3.086498e-12
-5.079143e-14
9.244291e-12
4.878854e-12
4.437012e-12
-7.722656e-14
2.672608e-12
-2.296913e-13
7.999169e-12
5.001491e-12
4.186875e-12
5.871146e-15
1.543411e-12
1.762612e-14
4.604895e-12
4.213443e-12
4.190644e-12
9.084527e-14
1.547457e-12
2.704508e-13
4.61711e-12
4.223129e-12
4.440312e-12
3.701863e-14
2.721928e-12
1.105914e-13
8.146918e-12
5.005173e-12
4.42411e-12
-1.814944e-15
3.119626e-12
-5.487691e-15
9.343544e-12
4.861626e-12
4.416258e-12
-4.283442e-14
3.103633e-12
-1.279595e-13
9.295674e-12
4.868894e-12
4.431525e-12
-1.040295e-13
2.691509e-12
-3.09528e-13
8.05567e-12
5.014174e-12
4.182607e-12
-2.213008e-14
1.542772e-12
-6.570077e-14
4.603118e-12
4.229026e-12
4.176346e-12
6.763274e-14
1.544037e-12
2.01441e-13
4.606921e-12
4.200741e-12
4.415068e-12
2.954954e-14
2.712467e-12
8.833698e-14
8.118829e-12
4.939215e-12
4.398813e-12
1.32663e-15
3.11475e-12
3.849381e-15
9.329059e-12
4.80892e-12
4.406563e-12
-3.576639e-14
3.11112e-12
-1.070025e-13
9.318075e-12
4.842129e-12
4.419339e-12
-8.830451e-14
2.704018e-12
-2.629886e-13
8.09324e-12
4.976001e-12
4.175575e-12
-4.098018e-15
1.545279e-12
-1.23977e-14
4.610577e-12
4.213079e-12
4.174079e-12
8.228941e-14
1.545904e-12
2.447627e-13
4.612426e-12
4.20475e-12
4.41927e-12
3.412154e-14
2.704982e-12
1.01904e-13
8.096182e-12
4.971516e-12
4.404246e-12
-1.075568e-17
3.111999e-12
-3.242424e-17
9.320696e-12
4.831675e-12
4.403867e-12
-3.415939e-14
3.111942e-12
-1.020171e-13
9.320527e-12
4.831346e-12
4.418339e-12
-8.235778e-14
2.704836e-12
-2.44966e-13
8.095748e-12
4.970716e-12
4.173324e-12
4.007352e-15
1.54589e-12
1.212798e-14
4.612383e-12
4.204067e-12
4.1793e-12
8.822804e-14
1.545286e-12
2.627618e-13
4.6106e-12
4.216769e-12
4.423465e-12
3.571992e-14
2.704168e-12
1.068642e-13
8.093689e-12
4.979997e-12
4.410139e-12
-1.385671e-15
3.111199e-12
-4.027196e-15
9.318311e-12
4.845639e-12
4.401658e-12
-2.960716e-14
3.114667e-12
-8.850884e-14
9.328811e-12
4.811821e-12
4.412923e-12
-6.767125e-14
2.712282e-12
-2.015538e-13
8.118273e-12
4.937081e-12
4.18287e-12
2.20753e-14
1.544023e-12
6.554156e-14
4.60688e-12
4.207291e-12
4.190236e-12
1.039835e-13
1.542775e-12
3.093959e-13
4.603126e-12
4.236612e-12
4.439531e-12
4.290835e-14
2.691654e-12
1.281851e-13
8.056101e-12
5.02177e-12
4.423808e-12
1.972151e-15
3.103665e-12
5.959195e-15
9.295771e-12
4.876259e-12
4.418987e-12
-3.697827e-14
3.119669e-12
-1.104706e-13
9.343675e-12
4.856344e-12
4.434573e-12
-9.090576e-14
2.721881e-12
-2.706266e-13
8.146778e-12
4.999677e-12
4.185348e-12
-6.019471e-15
1.547415e-12
-1.806319e-14
4.616985e-12
4.218086e-12
4.182553e-12
7.708247e-14
1.543428e-12
2.292758e-13
4.604944e-12
4.209083e-12
4.432828e-12
1.703304e-14
2.672617e-12
5.081014e-14
7.999194e-12
4.997006e-12
4.420687e-12
-2.472949e-14
3.086656e-12
-7.385342e-14
9.244762e-12
4.865267e-12
4.428422e-12
-7.698918e-14
3.109516e-12
-2.299157e-13
9.313144e-12
4.922275e-12
4.446506e-12
-1.459966e-13
2.708158e-12
-4.343593e-13
8.105652e-12
5.095332e-12
4.150596e-12
-6.526192e-14
1.536565e-12
-1.943658e-13
4.583752e-12
4.18395e-12
4.10273e-12
1.291049e-12
3.8468e-12
4.106606e-12
4.084512e-12
5.091462e-14
1.242345e-12
1.517892e-13
3.701977e-12
4.077652e-12
4.138429e-12
9.412123e-14
1.475844e-12
2.805902e-13
4.402909e-12
4.19062e-12
4.344429e-12
4.759069e-14
2.622122e-12
1.423313e-13
7.848353e-12
4.739954e-12
4.35561e-12
7.966651e-15
3.04199e-12
2.391624e-14
9.111675e-12
4.675046e-12
4.343122e-12
-2.417593e-14
3.023883e-12
-7.195677e-14
9.057469e-12
4.625812e-12
4.327979e-12
-6.028477e-14
2.598683e-12
-1.79205e-13
7.778047e-12
4.656348e-12
4.158629e-12
-1.263037e-14
1.484957e-12
-3.690184e-14
4.430652e-12
4.190567e-12
4.158225e-12
3.912796e-14
1.486789e-12
1.173777e-13
4.43624e-12
4.184808e-12
4.314322e-12
2.182508e-14
2.646322e-12
6.545173e-14
7.921122e-12
4.592051e-12
4.333356e-12
1.838428e-17
3.05749e-12
-1.787472e-16
9.158399e-12
4.584129e-12
4.339799e-12
-3.033827e-14
3.042413e-12
-9.092245e-14
9.113044e-12
4.613171e-12
4.324848e-12
-6.303985e-14
2.621014e-12
-1.881394e-13
7.844896e-12
4.632839e-12
4.165879e-12
-1.818359e-14
1.483774e-12
-5.420941e-14
4.427161e-12
4.20791e-12
4.159455e-12
3.40291e-14
1.485253e-12
1.015748e-13
4.431595e-12
4.17899e-12
4.316381e-12
2.060639e-14
2.634627e-12
6.168717e-14
7.886056e-12
4.589036e-12
4.333719e-12
2.978043e-15
3.051746e-12
8.886831e-15
9.141124e-12
4.574451e-12
4.348282e-12
-2.292e-14
3.049319e-12
-6.864955e-14
9.133769e-12
4.610113e-12
4.329969e-12
-4.826604e-14
2.630469e-12
-1.441216e-13
7.873397e-12
4.625284e-12
4.170746e-12
8.619804e-16
1.48568e-12
2.453558e-15
4.432878e-12
4.201865e-12
4.170884e-12
5.058028e-14
1.486317e-12
1.508029e-13
4.434772e-12
4.200185e-12
4.332815e-12
2.555619e-14
2.629704e-12
7.641481e-14
7.871096e-12
4.632292e-12
4.349082e-12
-3.779252e-17
3.049621e-12
-1.123768e-16
9.134651e-12
4.611656e-12
4.348682e-12
-2.563049e-14
3.04954e-12
-7.663679e-14
9.13441e-12
4.611325e-12
4.331804e-12
-5.071022e-14
2.629552e-12
-1.511898e-13
7.870641e-12
4.631462e-12
4.170282e-12
-1.031744e-15
1.486311e-12
-2.958281e-15
4.434753e-12
4.19968e-12
4.171264e-12
4.812269e-14
1.4857e-12
1.436948e-13
4.432939e-12
4.202271e-12
4.322523e-12
2.283753e-14
2.630621e-12
6.840323e-14
7.873853e-12
4.617657e-12
4.340193e-12
-2.990459e-15
3.049386e-12
-8.92502e-15
9.13397e-12
4.601867e-12
4.333247e-12
-2.062221e-14
3.051655e-12
-6.173562e-14
9.140852e-12
4.574017e-12
4.31533e-12
-3.407915e-14
2.634431e-12
-1.017236e-13
7.88547e-12
4.58812e-12
4.158809e-12
1.810017e-14
1.485241e-12
5.396133e-14
4.431561e-12
4.178443e-12
4.16291e-12
6.297165e-14
1.483789e-12
1.879342e-13
4.427207e-12
4.204857e-12
4.322416e-12
3.009789e-14
2.62121e-12
9.020466e-14
7.845482e-12
4.630767e-12
4.340138e-12
-3.262763e-16
3.042484e-12
-7.35369e-16
9.113257e-12
4.613593e-12
4.332712e-12
-2.182887e-14
3.057364e-12
-6.545793e-14
9.158023e-12
4.58309e-12
4.313087e-12
-3.90479e-14
2.646296e-12
-1.171336e-13
7.921045e-12
4.590499e-12
4.157393e-12
1.268514e-14
1.486859e-12
3.706757e-14
4.436448e-12
4.183719e-12
4.15893e-12
6.031303e-14
1.485065e-12
1.79292e-13
4.430973e-12
4.190677e-12
4.32872e-12
2.39854e-14
2.598783e-12
7.139704e-14
7.778345e-12
4.657466e-12
4.342954e-12
-8.163173e-15
3.023952e-12
-2.449201e-14
9.057669e-12
4.625935e-12
4.35425e-12
-4.755838e-14
3.041695e-12
-1.422355e-13
9.1108e-12
4.674332e-12
4.345069e-12
-9.410034e-14
2.622166e-12
-2.805319e-13
7.848484e-12
4.740541e-12
4.139099e-12
-5.087329e-14
1.475894e-12
-1.516667e-13
4.403058e-12
4.190931e-12
4.083604e-12
1.242356e-12
3.702009e-12
4.076726e-12
4.073852e-12
4.546083e-14
1.195556e-12
1.355939e-13
3.562317e-12
4.077916e-12
4.132467e-12
7.540101e-14
1.422508e-12
2.249904e-13
4.243614e-12
4.202356e-12
4.304677e-12
3.998301e-14
2.56299e-12
1.196177e-13
7.671157e-12
4.587242e-12
4.332674e-12
5.78676e-15
2.9934e-12
1.727864e-14
8.966355e-12
4.580334e-12
4.323563e-12
-2.433398e-14
2.980747e-12
-7.269271e-14
8.928405e-12
4.542595e-12
4.296383e-12
-5.301104e-14
2.549469e-12
-1.578314e-13
7.630481e-12
4.529086e-12
4.165625e-12
-2.313258e-14
1.43703e-12
-6.841901e-14
4.287415e-12
4.219448e-12
4.158859e-12
1.472883e-14
1.439008e-12
4.446752e-14
4.293359e-12
4.188846e-12
4.27943e-12
1.586449e-14
2.588369e-12
4.760084e-14
7.747542e-12
4.449877e-12
4.307374e-12
6.696507e-15
3.010995e-12
1.968875e-14
9.019415e-12
4.474282e-12
4.316442e-12
-1.821583e-14
3.001302e-12
-5.479895e-14
8.989977e-12
4.513996e-12
4.289958e-12
-4.052316e-14
2.572484e-12
-1.20953e-13
7.699305e-12
4.501693e-12
4.155134e-12
-1.084376e-14
1.438671e-12
-3.226517e-14
4.292243e-12
4.201365e-12
4.15305e-12
2.361957e-14
1.438557e-12
7.06628e-14
4.291967e-12
4.189753e-12
4.275649e-12
1.624043e-14
2.58049e-12
4.877055e-14
7.723802e-12
4.459795e-12
4.302436e-12
3.299215e-16
3.008655e-12
1.016902e-15
9.012215e-12
4.479096e-12
4.303646e-12
-1.820084e-14
3.006723e-12
-5.459617e-14
9.006337e-12
4.48669e-12
4.272014e-12
-2.921455e-14
2.577886e-12
-8.73961e-14
7.715813e-12
4.462398e-12
4.150777e-12
4.512623e-15
1.437729e-12
1.335221e-14
4.289506e-12
4.193405e-12
4.15222e-12
3.73046e-14
1.43855e-12
1.113369e-13
4.291967e-12
4.197044e-12
4.277663e-12
2.159799e-14
2.577316e-12
6.468274e-14
7.714045e-12
4.481374e-12
4.303765e-12
-2.40527e-17
3.006995e-12
-7.238174e-17
9.007131e-12
4.496041e-12
4.303369e-12
-2.164122e-14
3.006866e-12
-6.481251e-14
9.006743e-12
4.495779e-12
4.276637e-12
-3.73703e-14
2.577152e-12
-1.115333e-13
7.713555e-12
4.480442e-12
4.151617e-12
-4.587088e-15
1.438546e-12
-1.357486e-14
4.291953e-12
4.196459e-12
4.151359e-12
2.916811e-14
1.437752e-12
8.725605e-14
4.289574e-12
4.193895e-12
4.273094e-12
1.816453e-14
2.578035e-12
5.448687e-14
7.71626e-12
4.463458e-12
4.304133e-12
-3.586665e-16
3.006763e-12
-1.101511e-15
9.006458e-12
4.487232e-12
4.302006e-12
-1.626319e-14
3.008549e-12
-4.88368e-14
9.011898e-12
4.478698e-12
4.274618e-12
-2.366802e-14
2.58028e-12
-7.080587e-14
7.723177e-12
4.45888e-12
4.152458e-12
1.080195e-14
1.438512e-12
3.214243e-14
4.291833e-12
4.189238e-12
4.155734e-12
4.052192e-14
1.438651e-12
1.209505e-13
4.292184e-12
4.201951e-12
4.290959e-12
1.832757e-14
2.572624e-12
5.512503e-14
7.699726e-12
4.502544e-12
4.316818e-12
-6.565714e-15
3.001404e-12
-1.931291e-14
8.990283e-12
4.514229e-12
4.307218e-12
-1.602023e-14
3.010871e-12
-4.806617e-14
9.019036e-12
4.474961e-12
4.278408e-12
-1.485609e-14
2.588236e-12
-4.484132e-14
7.747147e-12
4.449086e-12
4.158196e-12
2.31318e-14
1.438928e-12
6.842252e-14
4.293123e-12
4.188253e-12
4.166096e-12
5.31987e-14
1.436933e-12
1.583959e-13
4.287126e-12
4.219974e-12
4.297079e-12
2.478564e-14
2.549344e-12
7.40359e-14
7.630107e-12
4.529677e-12
4.323773e-12
-5.774798e-15
2.980846e-12
-1.722819e-14
8.928702e-12
4.544005e-12
4.331353e-12
-4.028725e-14
2.993152e-12
-1.205102e-13
8.965623e-12
4.579812e-12
4.301748e-12
-7.558467e-14
2.562969e-12
-2.255352e-13
7.671099e-12
4.584155e-12
4.129807e-12
-4.553289e-14
1.422441e-12
-1.358075e-13
4.243415e-12
4.199722e-12
4.073027e-12
1.195494e-12
3.562132e-12
4.077096e-12
4.059896e-12
3.005543e-14
1.165548e-12
8.967831e-14
3.472977e-12
4.059555e-12
4.11442e-12
4.493653e-14
1.389489e-12
1.342389e-13
4.145242e-12
4.168231e-12
4.246532e-12
2.551753e-14
2.526887e-12
7.643831e-14
7.563214e-12
4.412276e-12
4.279591e-12
2.730508e-15
2.965775e-12
8.138133e-15
8.884044e-12
4.430199e-12
4.27607e-12
-1.927142e-14
2.956779e-12
-5.772422e-14
8.857004e-12
4.413326e-12
4.245287e-12
-3.67713e-14
2.519196e-12
-1.096731e-13
7.54e-12
4.387712e-12
4.141448e-12
-2.131893e-14
1.40595e-12
-6.333922e-14
4.19477e-12
4.187757e-12
4.133065e-12
3.002663e-15
1.408754e-12
9.17167e-15
4.203142e-12
4.150767e-12
4.234731e-12
1.106251e-14
2.54745e-12
3.3181e-14
7.625175e-12
4.33309e-12
4.264278e-12
9.431248e-15
2.980123e-12
2.801603e-14
8.927397e-12
4.361459e-12
4.275624e-12
-1.23863e-14
2.977903e-12
-3.719598e-14
8.920279e-12
4.410526e-12
4.248353e-12
-3.3646e-14
2.543518e-12
-1.002349e-13
7.612654e-12
4.398045e-12
4.138601e-12
-1.910293e-14
1.411679e-12
-5.673399e-14
4.211747e-12
4.1756e-12
4.138375e-12
2.033923e-15
1.409749e-12
6.391636e-15
4.206046e-12
4.161169e-12
4.237894e-12
6.461013e-15
2.543445e-12
1.953315e-14
7.613095e-12
4.335462e-12
4.267548e-12
1.239836e-15
2.981744e-12
3.546529e-15
8.932089e-12
4.363652e-12
4.269676e-12
-8.639059e-15
2.981436e-12
-2.612466e-14
8.930938e-12
4.374749e-12
4.240252e-12
-1.201872e-14
2.54404e-12
-3.594207e-14
7.614489e-12
4.351395e-12
4.147499e-12
6.22005e-15
1.410095e-12
1.861278e-14
4.207019e-12
4.175436e-12
4.150847e-12
2.296002e-14
1.409725e-12
6.871262e-14
4.205979e-12
4.186734e-12
4.252844e-12
1.43088e-14
2.545444e-12
4.302595e-14
7.618774e-12
4.373802e-12
4.283177e-12
-8.323443e-18
2.981419e-12
-2.600491e-17
8.931007e-12
4.402352e-12
4.282762e-12
-1.43645e-14