/*--------------------------------*- C++ -*----------------------------------*\
| =========                 |                                                 |
| \\      /  F ield         | OpenFOAM: The Open Source CFD Toolbox           |
|  \\    /   O peration     | Version:  4.0                                   |
|   \\  /    A nd           | Web:      www.OpenFOAM.org                      |
|    \\/     M anipulation  |                                                 |
\*---------------------------------------------------------------------------*/
FoamFile
{
    version     2.0;
    format      ascii;
    class       volVectorField;
    location    "120/fuel";
    object      U;
}
// * * * * * * * * * * * * * * * * * * * * * * * * * * * * * * * * * * * * * //

dimensions      [0 1 -1 0 0 0 0];

internalField   nonuniform List<vector> 
39776
(
(8.239052e-06 0.0004154457 -0.0001634716)
(8.596583e-06 0.001236537 -0.0004873103)
(8.570301e-06 -0.0008281723 0.0003806215)
(1.222412e-05 -0.002464074 0.001148963)
(6.228471e-06 -0.001024613 0.00368307)
(-8.398243e-06 -0.003043583 0.01105714)
(6.025356e-06 -2.760852e-05 0.003875556)
(-8.709821e-06 -8.218414e-05 0.01163697)
(6.201226e-06 -0.0001397221 0.003829533)
(-7.575371e-06 -0.000415797 0.01149935)
(6.147914e-06 0.0005815698 0.003653852)
(-8.427511e-06 0.001726703 0.01097)
(8.61232e-06 0.0007566886 0.0003512973)
(1.143846e-05 0.002250845 0.001059466)
(8.631337e-06 -0.0008045747 0.0003782062)
(1.172987e-05 -0.002393646 0.00114066)
(6.171988e-06 -0.0006981144 0.003661404)
(-8.380466e-06 -0.00207362 0.01099258)
(6.148032e-06 3.885549e-05 0.003828689)
(-7.751153e-06 0.0001153447 0.01149675)
(6.140202e-06 -6.251224e-05 0.00382719)
(-7.64242e-06 -0.0001856772 0.01149214)
(6.135716e-06 0.000638032 0.003661056)
(-8.398642e-06 0.001895003 0.01099138)
(8.595093e-06 0.0007883575 0.0003772004)
(1.154287e-05 0.002345322 0.001137208)
(8.598743e-06 -0.000793766 0.0003814465)
(1.159625e-05 -0.002361466 0.00114998)
(6.142624e-06 -0.0006587148 0.003659324)
(-8.37791e-06 -0.00195635 0.01098628)
(6.128434e-06 4.782944e-05 0.003825274)
(-7.668082e-06 0.0001420483 0.01148649)
(6.131847e-06 -5.344943e-05 0.003824467)
(-7.641485e-06 -0.0001586914 0.01148406)
(6.130383e-06 0.0006458017 0.00365827)
(-8.388644e-06 0.001918103 0.01098312)
(8.586539e-06 0.0007911422 0.0003798994)
(1.155025e-05 0.002353658 0.001145274)
(8.588777e-06 -0.0007927741 0.0003828147)
(1.157156e-05 -0.002358491 0.001154028)
(6.131123e-06 -0.0006532301 0.003658485)
(-8.387778e-06 -0.001940096 0.01098378)
(6.127052e-06 5.025703e-05 0.003823448)
(-7.664622e-06 0.0001492302 0.01148107)
(6.126921e-06 -5.026485e-05 0.003823435)
(-7.664737e-06 -0.0001492529 0.01148103)
(6.130559e-06 0.0006532284 0.003658477)
(-8.388414e-06 0.001940093 0.01098376)
(8.5879e-06 0.0007927955 0.000382807)
(1.157069e-05 0.002358555 0.001154006)
(8.594448e-06 -0.0007911172 0.0003798939)
(1.155819e-05 -0.002353584 0.001145257)
(6.138575e-06 -0.0006458004 0.003658273)
(-8.380431e-06 -0.001918098 0.01098313)
(6.139609e-06 5.346247e-05 0.003824481)
(-7.633914e-06 0.0001587317 0.0114841)
(6.135955e-06 -4.77726e-05 0.003825259)
(-7.660586e-06 -0.0001418778 0.01148644)
(6.139591e-06 0.0006587531 0.003659263)
(-8.380692e-06 0.001956465 0.0109861)
(8.616638e-06 0.0007937875 0.0003814624)
(1.16141e-05 0.00236153 0.001150025)
(8.613697e-06 -0.0007882998 0.0003771932)
(1.156144e-05 -0.002345151 0.001137186)
(6.154835e-06 -0.0006380126 0.003661042)
(-8.379451e-06 -0.001894946 0.01099133)
(6.159001e-06 6.255101e-05 0.003827179)
(-7.623632e-06 0.0001857942 0.0114921)
(6.137866e-06 -3.88192e-05 0.003828666)
(-7.761529e-06 -0.0001152342 0.01149669)
(6.161128e-06 0.0006982552 0.003661442)
(-8.391409e-06 0.002074044 0.0109927)
(8.620653e-06 0.0008046686 0.0003782947)
(1.171927e-05 0.002393929 0.001140924)
(8.602094e-06 -0.0007565415 0.0003510654)
(1.142689e-05 -0.002250378 0.00105876)
(6.138239e-06 -0.0005812416 0.003653201)
(-8.434936e-06 -0.001725685 0.01096802)
(6.173181e-06 0.0001399267 0.003828812)
(-7.59576e-06 0.0004163987 0.01149715)
(5.975241e-06 2.737717e-05 0.003875013)
(-8.756573e-06 8.14629e-05 0.01163532)
(6.175413e-06 0.00102446 0.003682707)
(-8.451669e-06 0.003043105 0.01105606)
(8.516167e-06 0.0008281516 0.000380526)
(1.216932e-05 0.002464003 0.001148678)
(8.184266e-06 -0.0004154408 -0.0001635018)
(8.541748e-06 -0.001236525 -0.000487402)
(8.166763e-06 -8.390629e-05 0.0007003224)
(7.916877e-06 -0.0002501734 0.002085032)
(8.184102e-06 -0.0007295051 0.001005403)
(7.620795e-06 -0.002175884 0.00300913)
(8.118111e-06 -0.0006642158 0.003346129)
(4.992284e-06 -0.001981296 0.01002097)
(8.151345e-06 -3.45397e-05 0.003425937)
(5.656985e-06 -0.0001038867 0.01026076)
(8.239577e-06 -9.337014e-05 0.003415949)
(6.323791e-06 -0.0002791072 0.01023035)
(8.26547e-06 0.0003544265 0.003267008)
(6.326322e-06 0.001057282 0.009782404)
(8.25861e-06 0.0003288519 0.001109299)
(7.920299e-06 0.0009806879 0.003312152)
(8.256597e-06 -0.0004119686 0.001126611)
(7.824313e-06 -0.001228964 0.003364848)
(8.244301e-06 -0.0004098638 0.003320572)
(6.130657e-06 -0.00122318 0.009942319)
(8.246127e-06 2.442133e-05 0.003446177)
(6.322864e-06 7.261787e-05 0.01032)
(8.255817e-06 -4.487229e-05 0.003446185)
(6.405758e-06 -0.0001336263 0.01032002)
(8.275216e-06 0.0003733185 0.003308017)
(6.314058e-06 0.001114163 0.009904624)
(8.263492e-06 0.0003602553 0.001134318)
(7.852526e-06 0.00107465 0.003387203)
(8.266268e-06 -0.0003752415 0.001140755)
(7.854532e-06 -0.001119213 0.003406613)
(8.268127e-06 -0.0003880942 0.003316266)
(6.269748e-06 -0.00115816 0.009929136)
(8.259771e-06 3.176593e-05 0.003448528)
(6.384148e-06 9.453169e-05 0.01032698)
(8.283365e-06 -3.902286e-05 0.003448058)
(6.425604e-06 -0.0001161312 0.0103256)
(8.292121e-06 0.0003779406 0.003312739)
(6.316395e-06 0.001127944 0.009918637)
(8.285311e-06 0.0003645422 0.001139114)
(7.872773e-06 0.00108741 0.003401573)
(8.285582e-06 -0.0003703234 0.001140145)
(7.870197e-06 -0.001104578 0.003404745)
(8.292229e-06 -0.0003825711 0.003314267)
(6.306569e-06 -0.00114177 0.009923195)
(8.284753e-06 3.539674e-05 0.003447585)
(6.424077e-06 0.0001053143 0.01032417)
(8.284444e-06 -3.54296e-05 0.003447572)
(6.423727e-06 -0.0001054114 0.01032414)
(8.291272e-06 0.0003825544 0.003314242)
(6.305542e-06 0.001141721 0.009923121)
(8.284894e-06 0.0003703343 0.001140114)
(7.869435e-06 0.001104611 0.003404655)
(8.285809e-06 -0.0003645327 0.001139126)
(7.873344e-06 -0.001087381 0.00340161)
(8.271778e-06 -0.0003779592 0.003312753)
(6.296124e-06 -0.001127999 0.009918676)
(8.262441e-06 3.899198e-05 0.003448062)
(6.404739e-06 0.00011604 0.01032561)
(8.259346e-06 -3.180308e-05 0.003448492)
(6.38379e-06 -9.464056e-05 0.01032687)
(8.267102e-06 0.0003880585 0.003316248)
(6.268598e-06 0.001158054 0.009929083)
(8.265458e-06 0.0003752629 0.001140737)
(7.853787e-06 0.001119274 0.003406562)
(8.255588e-06 -0.0003602796 0.001134336)
(7.844652e-06 -0.001074724 0.003387255)
(8.267474e-06 -0.0003733128 0.003308031)
(6.306232e-06 -0.001114147 0.009904666)
(8.255782e-06 4.483963e-05 0.003446175)
(6.405707e-06 0.0001335293 0.01031999)
(8.245729e-06 -2.444562e-05 0.003446112)
(6.322353e-06 -7.269113e-05 0.0103198)
(8.243118e-06 0.0004098474 0.003320494)
(6.128867e-06 0.001223129 0.009942085)
(8.256002e-06 0.0004121175 0.001126518)
(7.823738e-06 0.001229397 0.003364564)
(8.259265e-06 -0.0003287725 0.001109368)
(7.922014e-06 -0.0009804935 0.003312347)
(8.265411e-06 -0.0003543616 0.00326699)
(6.324235e-06 -0.001057135 0.009782316)
(8.239607e-06 9.340335e-05 0.003415928)
(6.317043e-06 0.0002792162 0.01023026)
(8.148858e-06 3.432567e-05 0.003425754)
(5.652579e-06 0.0001033014 0.01026017)
(8.123522e-06 0.0006641475 0.003346008)
(4.997073e-06 0.001981119 0.0100206)
(8.189653e-06 0.0007294961 0.001005485)
(7.626495e-06 0.002175858 0.003009361)
(8.165766e-06 8.386077e-05 0.0007003105)
(7.916069e-06 0.0002500426 0.002084989)
(8.04382e-06 -0.0001015164 0.00145442)
(8.035766e-06 -0.0003028535 0.004332443)
(8.075049e-06 -0.0001982424 0.001826083)
(7.284535e-06 -0.0005921927 0.005448491)
(8.286798e-06 -0.000215264 0.003711603)
(7.888458e-06 -0.0006455888 0.0111036)
(8.228353e-06 5.586133e-06 0.00395093)
(7.355e-06 1.546941e-05 0.01182548)
(8.308824e-06 3.759639e-06 0.003913363)
(7.88492e-06 1.034044e-05 0.01171274)
(8.353443e-06 0.000115412 0.003605205)
(8.528494e-06 0.0003452583 0.01078378)
(8.151817e-06 4.123131e-05 0.001968855)
(7.905113e-06 0.0001237561 0.005873248)
(8.148394e-06 -8.496762e-05 0.001991625)
(7.80352e-06 -0.000254018 0.005941461)
(8.340991e-06 -0.0001330694 0.003668406)
(8.35531e-06 -0.0003982426 0.01097298)
(8.291536e-06 -6.105902e-06 0.003971084)
(7.790947e-06 -1.82438e-05 0.01188487)
(8.301089e-06 -5.234039e-06 0.003959497)
(7.847558e-06 -1.581598e-05 0.01185046)
(8.347977e-06 0.0001131705 0.003649365)
(8.452405e-06 0.0003387927 0.01091586)
(8.130325e-06 5.398861e-05 0.001995004)
(7.853937e-06 0.0001618205 0.005951336)
(8.130235e-06 -7.400595e-05 0.0020015)
(7.824014e-06 -0.0002212358 0.005970878)
(8.322714e-06 -0.00012452 0.003665164)
(8.367843e-06 -0.0003724894 0.01096335)
(8.276715e-06 -2.363847e-06 0.00397003)
(7.807926e-06 -6.997973e-06 0.01188175)
(8.276442e-06 -3.159488e-06 0.00396573)
(7.815538e-06 -9.569873e-06 0.01186896)
(8.320918e-06 0.0001165975 0.003657066)
(8.410593e-06 0.0003489326 0.01093896)
(8.121559e-06 6.053139e-05 0.001998729)
(7.834765e-06 0.0001812238 0.005962508)
(8.122117e-06 -6.727943e-05 0.002000766)
(7.825544e-06 -0.0002012769 0.005968629)
(8.317273e-06 -0.0001205546 0.003660179)
(8.382787e-06 -0.000360715 0.01094841)
(8.267345e-06 5.514127e-07 0.003967627)
(7.80217e-06 1.718281e-06 0.01187462)
(8.266864e-06 -6.048945e-07 0.003967607)
(7.801611e-06 -1.877912e-06 0.01187456)
(8.316023e-06 0.0001205313 0.003660122)
(8.381589e-06 0.0003606458 0.01094823)
(8.121345e-06 6.72406e-05 0.002000737)
(7.824825e-06 0.0002011624 0.00596854)
(8.122324e-06 -6.05712e-05 0.001998746)
(7.835482e-06 -0.0001813413 0.005962558)
(8.322232e-06 -0.000116624 0.003657116)
(8.411789e-06 -0.000349011 0.01093911)
(8.277019e-06 3.123808e-06 0.003965746)
(7.81609e-06 9.463685e-06 0.01186901)
(8.276172e-06 2.329085e-06 0.003970001)
(7.807106e-06 6.893942e-06 0.01188167)
(8.321458e-06 0.000124561 0.003665115)
(8.366472e-06 0.0003726093 0.0109632)
(8.129373e-06 7.403203e-05 0.002001457)
(7.823227e-06 0.0002213124 0.005970751)
(8.131016e-06 -5.395837e-05 0.001995017)
(7.854581e-06 -0.0001617319 0.005951376)
(8.349181e-06 -0.0001131391 0.003649392)
(8.453626e-06 -0.0003387011 0.01091594)
(8.30163e-06 5.235146e-06 0.003959526)
(7.848481e-06 1.581719e-05 0.01185055)
(8.290639e-06 6.078017e-06 0.003971123)
(7.789332e-06 1.815697e-05 0.01188499)
(8.339873e-06 0.0001330917 0.003668359)
(8.354521e-06 0.0003983023 0.01097284)
(8.147703e-06 8.494346e-05 0.001991583)
(7.803109e-06 0.0002539338 0.005941336)
(8.152688e-06 -4.126461e-05 0.001968734)
(7.906074e-06 -0.0001238821 0.005872895)
(8.353902e-06 -0.0001153778 0.003605107)
(8.526613e-06 -0.0003451597 0.01078352)
(8.308363e-06 -3.635843e-06 0.003913173)
(7.882187e-06 -9.973027e-06 0.0117122)
(8.232671e-06 -5.490116e-06 0.003951011)
(7.367759e-06 -1.518089e-05 0.01182574)
(8.283411e-06 0.0002152572 0.003711429)
(7.883582e-06 0.0006455862 0.01110308)
(8.071421e-06 0.0001982538 0.00182592)
(7.279847e-06 0.0005922275 0.005448013)
(8.043301e-06 0.0001014719 0.00145431)
(8.035114e-06 0.0003027256 0.004332117)
(8.054427e-06 -7.306345e-05 0.001379717)
(7.984157e-06 -0.0002178788 0.004110639)
(8.114393e-06 6.4654e-05 0.001699703)
(7.461474e-06 0.0001918474 0.005070786)
(8.485291e-06 6.856138e-05 0.003256609)
(9.558143e-06 0.0002010042 0.009749306)
(8.543423e-06 3.858313e-05 0.003556915)
(9.572758e-06 0.0001151359 0.01064983)
(8.53414e-06 -6.375369e-06 0.003523097)
(9.606674e-06 -1.957603e-05 0.0105485)
(8.520458e-06 -5.546761e-05 0.003166531)
(9.838232e-06 -0.0001635072 0.00947909)
(8.157694e-06 -0.0001168279 0.001725735)
(7.839415e-06 -0.0003479196 0.005148832)
(8.155537e-06 8.293234e-05 0.001737541)
(7.768455e-06 0.0002467639 0.005184158)
(8.49879e-06 4.523528e-05 0.003243308)
(9.633476e-06 0.0001326975 0.009708745)
(8.529724e-06 1.862493e-05 0.003556735)
(9.549552e-06 5.575996e-05 0.01064929)
(8.530037e-06 -2.174046e-05 0.003547689)
(9.569962e-06 -6.521546e-05 0.01062209)
(8.512102e-06 -5.803071e-05 0.003211538)
(9.764643e-06 -0.0001710691 0.009613523)
(8.159246e-06 -0.0001112044 0.001739635)
(7.82767e-06 -0.0003309834 0.005190336)
(8.165998e-06 9.109889e-05 0.001743669)
(7.802078e-06 0.0002712057 0.005202418)
(8.513641e-06 4.857463e-05 0.003234629)
(9.69307e-06 0.0001428362 0.009682751)
(8.538089e-06 1.804749e-05 0.003556205)
(9.563737e-06 5.409662e-05 0.01064771)
(8.54165e-06 -2.021799e-05 0.003552432)
(9.583837e-06 -6.066927e-05 0.01063634)
(8.514771e-06 -5.589477e-05 0.003221115)
(9.74064e-06 -0.0001646411 0.009642187)
(8.187762e-06 -0.0001055642 0.001742639)
(7.844483e-06 -0.0003141801 0.005199299)
(8.188548e-06 9.717333e-05 0.001743035)
(7.839108e-06 0.0002892976 0.005200515)
(8.535546e-06 5.067219e-05 0.003227718)
(9.734016e-06 0.0001491908 0.009662023)
(8.561885e-06 1.931184e-05 0.003553597)
(9.592906e-06 5.794553e-05 0.01063989)
(8.561268e-06 -1.934109e-05 0.003553546)
(9.592254e-06 -5.803336e-05 0.01063974)
(8.534118e-06 -5.069236e-05 0.003227596)
(9.732815e-06 -0.0001492508 0.009661658)
(8.187706e-06 -9.723902e-05 0.001743012)
(7.83833e-06 -0.0002894922 0.005200447)
(8.188757e-06 0.0001055136 0.001742651)
(7.845375e-06 0.0003140303 0.005199334)
(8.537442e-06 5.585936e-05 0.003221214)
(9.763136e-06 0.0001645354 0.009642481)
(8.563471e-06 2.017921e-05 0.003552492)
(9.605647e-06 6.055303e-05 0.01063651)
(8.537605e-06 -1.806654e-05 0.003556179)
(9.563117e-06 -5.41542e-05 0.01064763)
(8.512225e-06 -4.854551e-05 0.003234527)
(9.691681e-06 -0.0001427494 0.009682449)
(8.165141e-06 -9.108776e-05 0.001743646)
(7.801207e-06 -0.0002711717 0.005202351)
(8.168407e-06 0.0001112254 0.001739637)
(7.836865e-06 0.0003310451 0.005190341)
(8.521995e-06 5.804436e-05 0.003211601)
(9.774759e-06 0.0001711091 0.009613707)
(8.530442e-06 2.16488e-05 0.003547707)
(9.569779e-06 6.494786e-05 0.01062215)
(8.530232e-06 -1.863599e-05 0.00355668)
(9.551031e-06 -5.579136e-05 0.01064913)
(8.497366e-06 -4.527474e-05 0.003243147)
(9.632136e-06 -0.0001328218 0.009708265)
(8.154821e-06 -8.306124e-05 0.001737497)
(7.767812e-06 -0.0002471487 0.005184032)
(8.158547e-06 0.0001167182 0.001725742)
(7.839737e-06 0.0003476048 0.005148865)
(8.522364e-06 5.529381e-05 0.003166596)
(9.840909e-06 0.0001629875 0.009479312)
(8.534096e-06 6.162785e-06 0.003523191)
(9.608809e-06 1.894157e-05 0.0105488)
(8.537312e-06 -3.862465e-05 0.003557071)
(9.55901e-06 -0.0001152701 0.01065032)
(8.473943e-06 -6.84854e-05 0.003256674)
(9.547169e-06 -0.0002007886 0.009749509)
(8.103581e-06 -6.463684e-05 0.001699725)
(7.451285e-06 -0.000191786 0.005070862)
(8.054174e-06 7.316934e-05 0.001379748)
(7.984044e-06 0.000218191 0.004110738)
(7.99862e-06 -2.513567e-05 0.001486792)
(8.026899e-06 -7.506268e-05 0.004429415)
(8.078193e-06 3.703709e-05 0.001791151)
(7.965829e-06 0.0001101976 0.005342753)
(8.374644e-06 4.104305e-05 0.003120227)
(9.066366e-06 0.0001217827 0.009339323)
(8.404425e-06 2.03507e-05 0.003481363)
(8.926204e-06 6.129056e-05 0.01042495)
(8.425515e-06 1.115089e-05 0.003447164)
(8.982489e-06 3.262691e-05 0.01032258)
(8.401485e-06 -2.081284e-05 0.003048081)
(9.120555e-06 -6.182005e-05 0.009122931)
(8.144014e-06 -3.778021e-05 0.001795527)
(8.143426e-06 -0.0001125645 0.005356235)
(8.145399e-06 2.748818e-05 0.001806269)
(8.110963e-06 8.184797e-05 0.005388331)
(8.399215e-06 2.218658e-05 0.003115078)
(9.062976e-06 6.574635e-05 0.009323597)
(8.421284e-06 5.825843e-06 0.003483305)
(8.934078e-06 1.7904e-05 0.01043073)
(8.425694e-06 -6.935437e-06 0.003472301)
(8.969634e-06 -2.12285e-05 0.01039778)
(8.400437e-06 -2.893155e-05 0.003081293)
(9.113957e-06 -8.589768e-05 0.009222372)
(8.147218e-06 -4.20041e-05 0.001805)
(8.145427e-06 -0.0001249922 0.005384577)
(8.146358e-06 2.571859e-05 0.001807826)
(8.12873e-06 7.670634e-05 0.005393044)
(8.377455e-06 1.934622e-05 0.00310614)
(9.039e-06 5.745629e-05 0.009296963)
(8.400989e-06 5.372095e-06 0.003479288)
(8.914631e-06 1.648644e-05 0.01041882)
(8.402579e-06 -7.108932e-06 0.003475148)
(8.933725e-06 -2.173686e-05 0.01040632)
(8.378207e-06 -2.736652e-05 0.003092677)
(9.077268e-06 -8.132408e-05 0.009256422)
(8.126407e-06 -3.911011e-05 0.001807074)
(8.124083e-06 -0.0001164611 0.005390763)
(8.117669e-06 2.825395e-05 0.001807295)
(8.101404e-06 8.418605e-05 0.005391427)
(8.370472e-06 2.068216e-05 0.003099007)
(9.040823e-06 6.136195e-05 0.009275583)
(8.392618e-06 6.204945e-06 0.003477114)
(8.906712e-06 1.902281e-05 0.01041227)
(8.391966e-06 -6.238939e-06 0.003477078)
(8.906178e-06 -1.912478e-05 0.01041216)
(8.368722e-06 -2.072927e-05 0.003098879)
(9.039227e-06 -6.150222e-05 0.009275201)
(8.117067e-06 -2.832531e-05 0.001807283)
(8.100884e-06 -8.43983e-05 0.005391394)
(8.119843e-06 3.902942e-05 0.001807097)
(8.117383e-06 0.0001162214 0.005390831)
(8.372218e-06 2.733512e-05 0.00309283)
(9.071082e-06 8.122986e-05 0.00925688)
(8.395498e-06 7.07848e-06 0.003475159)
(8.926619e-06 2.164532e-05 0.01040636)
(8.392536e-06 -5.412003e-06 0.003479217)
(8.905971e-06 -1.660513e-05 0.0104186)
(8.378062e-06 -1.932053e-05 0.003105982)
(9.039527e-06 -5.73796e-05 0.009296493)
(8.126926e-06 -2.570575e-05 0.001807809)
(8.109282e-06 -7.666728e-05 0.005392994)
(8.129843e-06 4.203924e-05 0.001805005)
(8.128048e-06 0.000125097 0.005384593)
(8.383628e-06 2.895031e-05 0.00308143)
(9.097342e-06 8.595487e-05 0.009222781)
(8.407925e-06 6.917476e-06 0.003472361)
(8.952416e-06 2.116896e-05 0.01039796)
(8.430195e-06 -5.88592e-06 0.003483369)
(8.943155e-06 -1.808406e-05 0.01043092)
(8.40773e-06 -2.219432e-05 0.003115134)
(9.071567e-06 -6.576467e-05 0.009323766)
(8.154261e-06 -2.749401e-05 0.001806292)
(8.119704e-06 -8.185956e-05 0.005388403)
(8.154771e-06 3.780629e-05 0.001795578)
(8.153877e-06 0.0001126591 0.00535639)
(8.413091e-06 2.084795e-05 0.003048251)
(9.132695e-06 6.192679e-05 0.009123439)
(8.453835e-06 -1.093901e-05 0.003447236)
(9.012284e-06 -3.202241e-05 0.0103228)
(8.450885e-06 -2.027485e-05 0.003480515)
(8.971965e-06 -6.108138e-05 0.01042241)
(8.419218e-06 -4.1134e-05 0.003120137)
(9.111928e-06 -0.0001220537 0.009339067)
(8.121898e-06 -3.703997e-05 0.00179119)
(8.009859e-06 -0.0001102079 0.005342875)
(8.044959e-06 2.507995e-05 0.001486824)
(8.073119e-06 7.489639e-05 0.004429516)
(8.034442e-06 -8.19518e-06 0.001373579)
(8.026161e-06 -2.455535e-05 0.004092923)
(8.128797e-06 7.74871e-05 0.001640021)
(8.108386e-06 0.0002306892 0.004892644)
(8.409017e-06 7.534947e-05 0.002899733)
(9.204396e-06 0.0002244276 0.008679288)
(8.457162e-06 6.576948e-06 0.003310391)
(9.009698e-06 1.993568e-05 0.009914715)
(8.439313e-06 1.934e-05 0.003283729)
(8.940928e-06 5.754337e-05 0.00983499)
(8.38891e-06 -3.754137e-05 0.002855699)
(9.063226e-06 -0.000111712 0.008547441)
(8.151723e-06 -4.334848e-05 0.001650603)
(8.1482e-06 -0.0001290624 0.004925)
(8.158201e-06 4.960657e-05 0.001656511)
(8.158395e-06 0.0001478186 0.004942769)
(8.393685e-06 4.548488e-05 0.002906367)
(9.081719e-06 0.000135521 0.008699005)
(8.425337e-06 -6.061059e-06 0.003318402)
(8.915033e-06 -1.792074e-05 0.00993872)
(8.402065e-06 4.150773e-06 0.0033018)
(8.907595e-06 1.214386e-05 0.009889133)
(8.368561e-06 -4.970146e-05 0.002873177)
(9.076139e-06 -0.0001480414 0.008599613)
(8.135287e-06 -5.930271e-05 0.001651355)
(8.153501e-06 -0.0001765247 0.004927407)
(8.133618e-06 3.597109e-05 0.001652116)
(8.12794e-06 0.0001072656 0.004929735)
(8.364625e-06 3.476649e-05 0.002899648)
(8.997686e-06 0.0001036314 0.008679267)
(8.388748e-06 -3.297664e-06 0.003315079)
(8.848232e-06 -9.698197e-06 0.009928946)
(8.392705e-06 4.719648e-06 0.003310924)
(8.880981e-06 1.381637e-05 0.009916382)
(8.356944e-06 -4.281215e-05 0.002887956)
(9.033011e-06 -0.0001276047 0.008643956)
(8.125888e-06 -4.963828e-05 0.001653058)
(8.134131e-06 -0.0001479649 0.004932464)
(8.126072e-06 4.531561e-05 0.00165397)
(8.126138e-06 0.0001348904 0.004935155)
(8.358899e-06 4.084001e-05 0.002889745)
(9.023586e-06 0.0001215869 0.008649401)
(8.390534e-06 -4.51833e-06 0.003311333)
(8.865777e-06 -1.326764e-05 0.00991761)
(8.389705e-06 4.507055e-06 0.00331125)
(8.864928e-06 1.323362e-05 0.009917363)
(8.357049e-06 -4.08686e-05 0.002889596)
(9.021907e-06 -0.000121672 0.008648955)
(8.124554e-06 -4.535912e-05 0.001653954)
(8.124712e-06 -0.0001350196 0.00493511)
(8.133157e-06 4.958663e-05 0.001653061)
(8.141376e-06 0.0001478109 0.004932473)
(8.36505e-06 4.278341e-05 0.002888089)
(9.040978e-06 0.0001275202 0.008644351)
(8.399692e-06 -4.74009e-06 0.003311003)
(8.887878e-06 -1.387805e-05 0.009916615)
(8.394379e-06 3.256182e-06 0.003315016)
(8.854046e-06 9.573257e-06 0.009928758)
(8.360366e-06 -3.478567e-05 0.002899467)
(8.993323e-06 -0.0001036874 0.008678726)
(8.146318e-06 -3.599282e-05 0.001652092)
(8.140707e-06 -0.0001073294 0.004929662)
(8.150195e-06 5.926709e-05 0.001651347)
(8.168404e-06 0.0001764216 0.004927385)
(8.384239e-06 4.968864e-05 0.002873308)
(9.091254e-06 0.0001480051 0.008600005)
(8.416882e-06 -4.059969e-06 0.003301857)
(8.922101e-06 -1.186959e-05 0.009889306)
(8.415273e-06 6.13538e-06 0.003318069)
(8.904741e-06 1.814193e-05 0.009937721)
(8.382424e-06 -4.551611e-05 0.002906171)
(9.070653e-06 -0.0001356135 0.008698415)
(8.147769e-06 -4.963971e-05 0.001656393)
(8.148326e-06 -0.000147913 0.004942418)
(8.143374e-06 4.322542e-05 0.001650572)
(8.139902e-06 0.0001286966 0.004924904)
(8.381088e-06 3.751637e-05 0.002855647)
(9.054724e-06 0.0001116497 0.008547284)
(8.413534e-06 -1.932676e-05 0.003283831)
(8.915361e-06 -5.749176e-05 0.009835294)
(8.411316e-06 -6.556095e-06 0.00331135)
(8.962197e-06 -1.987789e-05 0.009917573)
(8.362593e-06 -7.524851e-05 0.002899777)
(9.15869e-06 -0.0002241311 0.008679424)
(8.08304e-06 -7.750959e-05 0.00163984)
(8.062728e-06 -0.0002307607 0.00489211)
(7.992347e-06 8.221919e-06 0.001373473)
(7.984075e-06 2.463095e-05 0.004092614)
(7.953543e-06 3.97492e-06 0.001343931)
(7.964153e-06 1.178877e-05 0.004004596)
(8.036407e-06 4.984003e-05 0.001595265)
(8.10234e-06 0.0001485651 0.00475906)
(8.279535e-06 4.882301e-05 0.002805548)
(8.789221e-06 0.0001457598 0.008397329)
(8.338685e-06 1.665283e-06 0.003240894)
(8.719751e-06 5.090313e-06 0.009707159)
(8.330925e-06 6.676063e-06 0.0032194)
(8.669858e-06 1.997336e-05 0.009642835)
(8.279221e-06 -3.230781e-05 0.002774806)
(8.691364e-06 -9.619715e-05 0.008305209)
(8.084684e-06 -3.096197e-05 0.001599575)
(8.12877e-06 -9.197582e-05 0.004772603)
(8.087816e-06 1.767818e-05 0.001602196)
(8.127706e-06 5.315833e-05 0.004780586)
(8.279324e-06 2.32353e-05 0.002828096)
(8.650076e-06 6.970659e-05 0.008465074)
(8.328687e-06 -4.00545e-08 0.003254494)
(8.64144e-06 -2.322277e-07 0.009748145)
(8.330814e-06 8.145792e-08 0.003237389)
(8.665152e-06 1.006364e-07 0.009696837)
(8.2833e-06 -3.228142e-05 0.002797143)
(8.685258e-06 -9.650138e-05 0.008372051)
(8.094921e-06 -3.381788e-05 0.001597477)
(8.152846e-06 -0.0001008957 0.004766449)
(8.092835e-06 1.465945e-05 0.001599398)
(8.123062e-06 4.37829e-05 0.00477218)
(8.284359e-06 2.093856e-05 0.002814885)
(8.636688e-06 6.257861e-05 0.00842563)
(8.333976e-06 9.407752e-07 0.003247563)
(8.629675e-06 2.847423e-06 0.009727447)
(8.351688e-06 2.19464e-06 0.003244051)
(8.671313e-06 6.510068e-06 0.009716816)
(8.30014e-06 -2.653623e-05 0.002808743)
(8.683625e-06 -7.933489e-05 0.008406936)
(8.109651e-06 -2.403555e-05 0.001601054)
(8.154767e-06 -7.178484e-05 0.004777107)
(8.110423e-06 2.495646e-05 0.001601462)
(8.151364e-06 7.440254e-05 0.004778318)
(8.302998e-06 2.804505e-05 0.002808977)
(8.689327e-06 8.373455e-05 0.008407671)
(8.353308e-06 -9.22326e-07 0.003245478)
(8.673617e-06 -2.718906e-06 0.009721067)
(8.352542e-06 8.827307e-07 0.003245442)
(8.672946e-06 2.601079e-06 0.009720958)
(8.300907e-06 -2.808418e-05 0.002808821)
(8.687431e-06 -8.385174e-05 0.008407203)
(8.109207e-06 -2.505374e-05 0.001601447)
(8.150247e-06 -7.469172e-05 0.004778273)
(8.110727e-06 2.395399e-05 0.001601067)
(8.15572e-06 7.15423e-05 0.004777145)
(8.285748e-06 2.646708e-05 0.002808928)
(8.669001e-06 7.912862e-05 0.00840749)
(8.336052e-06 -2.212576e-06 0.00324414)
(8.655531e-06 -6.563829e-06 0.009717081)
(8.332984e-06 -9.358222e-07 0.003247452)
(8.628649e-06 -2.83365e-06 0.009727113)
(8.28232e-06 -2.096019e-05 0.002814675)
(8.634881e-06 -6.264344e-05 0.008425001)
(8.091523e-06 -1.469052e-05 0.001599393)
(8.121814e-06 -4.387481e-05 0.004772165)
(8.089169e-06 3.37611e-05 0.001597489)
(8.146983e-06 0.0001007264 0.004766486)
(8.278466e-06 3.226637e-05 0.002797316)
(8.680876e-06 9.645464e-05 0.008372565)
(8.331387e-06 -3.204116e-07 0.003237399)
(8.665883e-06 -8.120885e-07 0.009696867)
(8.327646e-06 -4.386698e-08 0.00325492)
(8.639689e-06 -1.553011e-08 0.009749427)
(8.277017e-06 -2.315715e-05 0.002828195)
(8.647414e-06 -6.946996e-05 0.008465373)
(8.086362e-06 -1.767105e-05 0.001602228)
(8.125915e-06 -5.313551e-05 0.004780679)
(8.085345e-06 3.101148e-05 0.001599645)
(8.129165e-06 9.212482e-05 0.004772807)
(8.280373e-06 3.228813e-05 0.002774876)
(8.692724e-06 9.613995e-05 0.008305415)
(8.33042e-06 -6.85855e-06 0.003219639)
(8.669531e-06 -2.050956e-05 0.009643538)
(8.336447e-06 -1.691254e-06 0.003240251)
(8.719118e-06 -5.164346e-06 0.00970526)
(8.280606e-06 -4.876169e-05 0.002805532)
(8.789837e-06 -0.0001455815 0.008397281)
(8.037993e-06 -4.987952e-05 0.00159534)
(8.103562e-06 -0.0001486824 0.004759282)
(7.951812e-06 -3.8927e-06 0.001343964)
(7.962435e-06 -1.154443e-05 0.004004695)
(7.933265e-06 7.487369e-06 0.001272325)
(7.930158e-06 2.231281e-05 0.003791183)
(8.020838e-06 4.047465e-05 0.001513424)
(8.090704e-06 0.0001207021 0.004514933)
(8.260424e-06 3.862664e-05 0.002719586)
(8.610711e-06 0.0001154589 0.008140003)
(8.334561e-06 3.720018e-06 0.003169709)
(8.620873e-06 1.113573e-05 0.009494429)
(8.328535e-06 2.358998e-06 0.003153043)
(8.57853e-06 7.022986e-06 0.009444527)
(8.267205e-06 -2.811467e-05 0.002701104)
(8.546733e-06 -8.391282e-05 0.008084476)
(8.092827e-06 -2.755571e-05 0.001528794)
(8.144751e-06 -8.190543e-05 0.004561301)
(8.092234e-06 3.187645e-06 0.001530056)
(8.118701e-06 9.834287e-06 0.004565157)
(8.266072e-06 1.216865e-05 0.002748277)
(8.47488e-06 3.659946e-05 0.008226321)
(8.323027e-06 4.624953e-06 0.00318881)
(8.519753e-06 1.375493e-05 0.00955201)
(8.325456e-06 2.452611e-06 0.003174125)
(8.552365e-06 7.04625e-06 0.009507689)
(8.264905e-06 -2.176992e-05 0.002725855)
(8.519796e-06 -6.510338e-05 0.00815858)
(8.076959e-06 -2.073978e-05 0.001528408)
(8.122348e-06 -6.1852e-05 0.004560121)
(8.076995e-06 9.32482e-06 0.001529601)
(8.109638e-06 2.788503e-05 0.00456373)
(8.250662e-06 1.539252e-05 0.002736786)
(8.474663e-06 4.613106e-05 0.008191717)
(8.308033e-06 1.822349e-06 0.003183587)
(8.512563e-06 5.520398e-06 0.009536174)
(8.307465e-06 -1.486222e-06 0.003181973)
(8.521096e-06 -4.478486e-06 0.00953127)
(8.241144e-06 -1.778363e-05 0.002734146)
(8.473202e-06 -5.328372e-05 0.008183673)
(8.069752e-06 -1.283779e-05 0.001528827)
(8.111247e-06 -3.838556e-05 0.00456146)
(8.071573e-06 1.76106e-05 0.001529769)
(8.113373e-06 5.24998e-05 0.004564253)
(8.24513e-06 2.149904e-05 0.002732314)
(8.493228e-06 6.430145e-05 0.008178126)
(8.303012e-06 1.378423e-06 0.003181196)
(8.524778e-06 4.160829e-06 0.009528916)
(8.302189e-06 -1.403753e-06 0.003181063)
(8.524105e-06 -4.23706e-06 0.009528518)
(8.243074e-06 -2.151928e-05 0.00273215)
(8.491295e-06 -6.436202e-05 0.008177638)
(8.070383e-06 -1.765936e-05 0.00152977)
(8.112203e-06 -5.264562e-05 0.004564257)
(8.070929e-06 1.280857e-05 0.001528857)
(8.112298e-06 3.829801e-05 0.00456155)
(8.243265e-06 1.776381e-05 0.002734283)
(8.475302e-06 5.322343e-05 0.008184083)
(8.308429e-06 1.467993e-06 0.003182026)
(8.522182e-06 4.424158e-06 0.009531431)
(8.307046e-06 -1.834355e-06 0.003183507)
(8.511361e-06 -5.555091e-06 0.009535934)
(8.24866e-06 -1.540437e-05 0.002736584)
(8.472834e-06 -4.616581e-05 0.008191112)
(8.075786e-06 -9.364759e-06 0.001529582)
(8.108543e-06 -2.800292e-05 0.004563673)
(8.078141e-06 2.073666e-05 0.001528428)
(8.123435e-06 6.184312e-05 0.004560179)
(8.266933e-06 2.177036e-05 0.002726094)
(8.52173e-06 6.510614e-05 0.008159299)
(8.32633e-06 -2.334722e-06 0.003174265)
(8.553181e-06 -6.703889e-06 0.009508108)
(8.322264e-06 -4.604891e-06 0.003188117)
(8.519791e-06 -1.370092e-05 0.009549936)
(8.264038e-06 -1.235371e-05 0.002748123)
(8.473178e-06 -3.714607e-05 0.00822586)
(8.090917e-06 -3.135954e-06 0.001530171)
(8.117335e-06 -9.679679e-06 0.004565501)
(8.09369e-06 2.750102e-05 0.001528951)
(8.145711e-06 8.174891e-05 0.00456177)
(8.268601e-06 2.836914e-05 0.002701242)
(8.547869e-06 8.466935e-05 0.008084895)
(8.328352e-06 -2.141725e-06 0.003152949)
(8.580118e-06 -6.374931e-06 0.009444241)
(8.331598e-06 -3.921294e-06 0.003169731)
(8.618754e-06 -1.17219e-05 0.009494489)
(8.254766e-06 -3.874738e-05 0.002719696)
(8.604939e-06 -0.0001158168 0.00814033)
(8.015655e-06 -4.054666e-05 0.001513457)
(8.085476e-06 -0.0001209164 0.004515032)
(7.931662e-06 -7.491837e-06 0.001272317)
(7.928571e-06 -2.2325e-05 0.00379116)
(7.903721e-06 7.372079e-06 0.00124407)
(7.911487e-06 2.200278e-05 0.003706979)
(7.987503e-06 2.426929e-05 0.001481589)
(8.062546e-06 7.240819e-05 0.00442001)
(8.197982e-06 2.293763e-05 0.00267983)
(8.415063e-06 6.866265e-05 0.008021009)
(8.271465e-06 4.03498e-06 0.003137462)
(8.461316e-06 1.209603e-05 0.009398227)
(8.270222e-06 -1.153833e-06 0.003127499)
(8.441593e-06 -3.510677e-06 0.009368258)
(8.206041e-06 -1.921218e-05 0.002670063)
(8.38994e-06 -5.746531e-05 0.00799154)
(8.044951e-06 -1.944845e-05 0.001497474)
(8.108938e-06 -5.787242e-05 0.004467874)
(8.043243e-06 -2.985485e-06 0.001500399)
(8.071991e-06 -8.786619e-06 0.004476597)
(8.207256e-06 6.074134e-06 0.002704914)
(8.335638e-06 1.825764e-05 0.008096533)
(8.266443e-06 5.606553e-06 0.0031555)
(8.391949e-06 1.676646e-05 0.009452633)
(8.270254e-06 4.344129e-06 0.00314974)
(8.436807e-06 1.278727e-05 0.009434864)
(8.20781e-06 -1.747716e-05 0.002693806)
(8.398759e-06 -5.218925e-05 0.008062455)