/*--------------------------------*- C++ -*----------------------------------*\
| =========                 |                                                 |
| \\      /  F ield         | OpenFOAM: The Open Source CFD Toolbox           |
|  \\    /   O peration     | Version:  4.0                                   |
|   \\  /    A nd           | Web:      www.OpenFOAM.org                      |
|    \\/     M anipulation  |                                                 |
\*---------------------------------------------------------------------------*/
FoamFile
{
    version     2.0;
    format      ascii;
    class       volVectorField;
    location    "120/fuel";
    object      U;
}
// * * * * * * * * * * * * * * * * * * * * * * * * * * * * * * * * * * * * * //

dimensions      [0 1 -1 0 0 0 0];

internalField   nonuniform List<vector> 
39776
(
(9.293494e-06 0.01770204 -0.03630639)
(2.398575e-05 0.05235583 -0.1083978)
(1.458108e-05 0.02201966 -0.01326051)
(0.0001272968 0.06531732 -0.03976593)
(2.440842e-05 0.0059937 -0.03802186)
(0.0002177792 0.0181407 -0.1125595)
(9.358981e-06 -0.003090097 -0.04942139)
(0.0001160166 -0.00870573 -0.1461124)
(7.917605e-06 0.006155871 -0.03744522)
(6.757478e-05 0.01859032 -0.1098016)
(8.799941e-06 -0.004252003 -0.04539119)
(0.0001456084 -0.01265428 -0.1335406)
(1.984834e-05 0.000688201 -0.04732217)
(0.0001430156 0.002392859 -0.1401191)
(1.936103e-05 0.008417874 -0.04462104)
(0.0001451595 0.02460773 -0.1322144)
(1.586238e-05 0.003225428 -0.0630438)
(0.0002226603 0.009692377 -0.1864469)
(6.240611e-06 -0.002755955 -0.04326098)
(7.965589e-05 -0.007641756 -0.1268773)
(2.625173e-06 0.005578781 -0.03141239)
(5.087118e-05 0.01618766 -0.09073342)
(1.316505e-05 -0.002583783 -0.06290628)
(0.0002085546 -0.007804578 -0.1858008)
(2.134729e-05 -0.003307053 -0.05242655)
(0.00016179 -0.009382657 -0.1551953)
(2.1217e-05 0.005727279 -0.05159953)
(0.0001616994 0.01654066 -0.1527575)
(1.400177e-05 0.002167806 -0.06647704)
(0.0002235312 0.006547832 -0.1965028)
(3.187285e-06 -0.003794922 -0.03445761)
(5.631912e-05 -0.01069254 -0.1000836)
(2.597238e-06 0.004402992 -0.03288908)
(5.349833e-05 0.01255104 -0.09520059)
(1.358172e-05 -0.002476313 -0.0658326)
(0.0002211371 -0.007467781 -0.1944939)
(2.165941e-05 -0.004504122 -0.05338157)
(0.0001642956 -0.01291233 -0.1580112)
(2.167923e-05 0.004903648 -0.05312497)
(0.0001661662 0.01406189 -0.157237)
(1.38133e-05 0.002112502 -0.06627573)
(0.0002223957 0.006395134 -0.1958114)
(1.565119e-06 -0.004137944 -0.03173416)
(4.938813e-05 -0.01168869 -0.09173698)
(1.72435e-06 0.004145155 -0.03182088)
(5.069332e-05 0.01172114 -0.09199586)
(1.397481e-05 -0.00212652 -0.06625985)
(0.0002233039 -0.006448947 -0.195773)
(2.172548e-05 -0.004912473 -0.05312585)
(0.0001661415 -0.01411012 -0.1572456)
(2.161273e-05 0.004497964 -0.05337938)
(0.0001642628 0.0128751 -0.1580059)
(1.331204e-05 0.002474369 -0.06585195)
(0.0002204574 0.007449355 -0.194554)
(2.61079e-06 -0.004391359 -0.03293535)
(5.361092e-05 -0.0125233 -0.0953432)
(3.131563e-06 0.003822333 -0.0344489)
(5.628627e-05 0.01076585 -0.1000571)
(1.422041e-05 -0.002150377 -0.06647165)
(0.0002243034 -0.006508024 -0.196485)
(2.129428e-05 -0.005722286 -0.05158788)
(0.0001619991 -0.0165404 -0.1527236)
(2.125601e-05 0.003307669 -0.05243137)
(0.0001614152 0.009372048 -0.1552121)
(1.297042e-05 0.002603961 -0.06290782)
(0.0002080158 0.007858015 -0.1858125)
(2.480679e-06 -0.005564766 -0.03157743)
(5.113487e-05 -0.01615263 -0.09124184)
(6.305126e-06 0.002765621 -0.04323465)
(7.977774e-05 0.007664542 -0.1267987)
(1.593673e-05 -0.003231591 -0.06305835)
(0.0002229156 -0.009717874 -0.1864923)
(1.931403e-05 -0.00844464 -0.04461663)
(0.0001452122 -0.02469803 -0.1322044)
(1.985286e-05 -0.0006900485 -0.04733881)
(0.0001429176 -0.00240404 -0.1401721)
(8.947673e-06 0.004255443 -0.04547202)
(0.0001460374 0.01266282 -0.1337856)
(8.116194e-06 -0.006137115 -0.03745055)
(6.807251e-05 -0.01853163 -0.1098244)
(8.238513e-06 0.003068553 -0.0493992)
(0.0001137461 0.008653058 -0.1460557)
(2.398111e-05 -0.006025171 -0.03800399)
(0.0002171164 -0.01824808 -0.1124928)
(1.583883e-05 -0.02199953 -0.01322484)
(0.0001296852 -0.06526107 -0.03968557)
(9.116359e-06 -0.01767567 -0.03628389)
(2.366447e-05 -0.05228161 -0.1083346)
(2.053909e-05 0.02324329 -0.05663719)
(9.064316e-05 0.06803981 -0.1671152)
(3.054137e-05 -0.04516934 -0.01452735)
(0.0005790271 -0.1342201 -0.04111219)
(-1.689998e-05 -0.07496178 0.003387658)
(-0.0001602845 -0.2203957 0.01375992)
(-5.686046e-05 -0.04113612 0.01403136)
(-0.0004478757 -0.1209986 0.04538035)
(-4.409345e-05 -0.006243897 0.01877691)
(-0.0004284459 -0.01787291 0.05958184)
(-3.408232e-05 0.02158351 0.01405359)
(-0.0003265487 0.06364033 0.04559175)
(2.406145e-05 0.02919877 -0.03993262)
(0.0001820883 0.08611287 -0.116696)
(2.211258e-05 -0.03641036 -0.02254557)
(0.0002741547 -0.1082225 -0.06454725)
(-3.299346e-05 -0.04725171 0.01326256)
(-0.0002786273 -0.1391343 0.04343199)
(-5.223936e-05 -0.02390614 0.01861747)
(-0.0004602615 -0.07038541 0.05892247)
(-4.678437e-05 0.01320704 0.02207838)
(-0.0004655335 0.03899069 0.06943433)
(-3.635931e-05 0.03787799 0.01623169)
(-0.0003022808 0.111723 0.05245633)
(2.654621e-05 0.03254596 -0.03300237)
(0.0002253906 0.09639396 -0.0955725)
(2.439681e-05 -0.03542927 -0.02808922)
(0.0002434584 -0.1052369 -0.08087805)
(-3.67496e-05 -0.04375977 0.01601467)
(-0.0002984435 -0.1289888 0.05186261)
(-5.039054e-05 -0.02073757 0.02171631)
(-0.0004729604 -0.06105702 0.06829958)
(-4.736292e-05 0.01822811 0.02132467)
(-0.0004657457 0.05371864 0.06713857)
(-3.638856e-05 0.04017163 0.01569584)
(-0.0002970891 0.1184747 0.05088657)
(2.543551e-05 0.03400592 -0.031389)
(0.0002264795 0.1008833 -0.09069815)
(2.530037e-05 -0.03493444 -0.03041219)
(0.0002320106 -0.1036939 -0.08780267)
(-3.703648e-05 -0.04172637 0.01566472)
(-0.0002975281 -0.1230531 0.05082365)
(-4.805775e-05 -0.01973993 0.02124327)
(-0.0004686647 -0.05817817 0.066916)
(-4.822717e-05 0.01976422 0.02123228)
(-0.00046937 0.05823531 0.06687206)
(-3.663609e-05 0.04173087 0.0156509)
(-0.0002965384 0.1230538 0.050774)
(2.537532e-05 0.03489979 -0.03039673)
(0.0002323808 0.1035808 -0.0877576)
(2.540743e-05 -0.03403437 -0.03140986)
(0.0002260212 -0.1009842 -0.0907632)
(-3.646267e-05 -0.04011874 0.01569183)
(-0.0002976346 -0.1183331 0.05086737)
(-4.768712e-05 -0.01823418 0.02130055)
(-0.0004666037 -0.05373948 0.06705933)
(-5.011364e-05 0.02071938 0.02171129)
(-0.0004723231 0.06100354 0.06827977)
(-3.667528e-05 0.04377758 0.01601841)
(-0.0002983236 0.1290353 0.05186993)
(2.448478e-05 0.035451 -0.02808026)
(0.0002439372 0.1052838 -0.0808538)
(2.634004e-05 -0.03253902 -0.03300129)
(0.0002249344 -0.09639143 -0.0955741)
(-3.687732e-05 -0.03787701 0.01621161)
(-0.0003033462 -0.1117448 0.05239309)
(-4.748523e-05 -0.01321826 0.02206309)
(-0.0004690439 -0.03902587 0.06938283)
(-5.256645e-05 0.02386705 0.01867486)
(-0.0004606796 0.07028151 0.05909547)
(-3.280092e-05 0.04728819 0.01331326)
(-0.0002784895 0.1392362 0.04358314)
(2.217946e-05 0.03641903 -0.02253592)
(0.0002745917 0.1082427 -0.06451925)
(2.407775e-05 -0.02919634 -0.03992626)
(0.0001819422 -0.08611564 -0.1166853)
(-3.419398e-05 -0.02155406 0.01404927)
(-0.0003269091 -0.06355828 0.04557592)
(-4.402465e-05 0.006242629 0.01879189)
(-0.0004286086 0.01786757 0.05962469)
(-5.721536e-05 0.04120361 0.0140529)
(-0.0004492822 0.1212011 0.04543047)
(-1.517537e-05 0.07494642 0.003397222)
(-0.0001547278 0.2203501 0.01376473)
(3.092989e-05 0.04513698 -0.01450856)
(0.0005797221 0.1341194 -0.04107596)
(2.046055e-05 -0.02324957 -0.05661685)
(9.040269e-05 -0.06805865 -0.1670625)
(8.969286e-06 0.01069494 -0.04164373)
(-6.701419e-05 0.03074237 -0.122189)
(9.090461e-06 -0.0388095 -0.006104008)
(0.0002119038 -0.1156208 -0.01493705)
(-2.256088e-05 -0.04446224 0.03648749)
(-0.0003448885 -0.1317392 0.1113542)
(-3.308643e-05 -0.00161866 0.04198082)
(-0.0002607947 -0.005303173 0.1268183)
(-6.053535e-06 -0.004552976 0.04266902)
(-6.970765e-05 -0.01341204 0.1284749)
(-1.157733e-05 -0.001854414 0.04106573)
(-0.0001348814 -0.005204108 0.1236928)
(1.923527e-07 0.005883241 -0.009169316)
(-9.172716e-05 0.01734785 -0.0265499)
(-3.983054e-06 -0.01986673 0.008766783)
(-3.01979e-05 -0.05924947 0.02754833)
(-1.904213e-05 -0.01541455 0.05517165)
(-0.000250004 -0.04593634 0.1659908)
(-1.504008e-05 0.003149862 0.05856992)
(-0.000118485 0.008943285 0.1755289)
(-6.855853e-06 -0.00609223 0.05819587)
(-5.528075e-05 -0.0177491 0.1743411)
(-1.555264e-05 0.0009770595 0.05331493)
(-0.0001968064 0.003386578 0.1602437)
(-3.803349e-06 0.01035858 0.001519525)
(-9.768534e-05 0.03082125 0.005383653)
(-5.417626e-06 -0.0147558 0.00715318)
(-8.382956e-05 -0.04401054 0.02232104)
(-1.780876e-05 -0.005931872 0.05658985)
(-0.0002266539 -0.01798926 0.1700311)
(-9.175051e-06 0.005284303 0.06080297)
(-6.859434e-05 0.01529802 0.1820061)
(-7.182589e-06 -0.005638899 0.05998438)
(-5.267718e-05 -0.01635523 0.1795479)
(-1.659919e-05 0.002047678 0.05525328)
(-0.0002084983 0.006520267 0.1659558)
(-5.272885e-06 0.01171847 0.004952483)
(-0.0001008272 0.03491703 0.01566658)
(-5.862997e-06 -0.01272386 0.006203624)
(-9.91359e-05 -0.03794988 0.01940499)
(-1.729286e-05 -0.002953255 0.0561174)
(-0.0002160962 -0.009197601 0.1685495)
(-8.068197e-06 0.005575689 0.06081355)
(-5.690062e-05 0.01615901 0.1820029)
(-7.774476e-06 -0.005555924 0.06079032)
(-5.612826e-05 -0.01610724 0.1819365)
(-1.708212e-05 0.002973885 0.05610171)
(-0.0002152729 0.009245343 0.1685058)
(-5.817677e-06 0.01271999 0.006211505)
(-9.887793e-05 0.03791883 0.01943157)
(-5.321681e-06 -0.01172945 0.004948172)
(-0.0001010397 -0.03496805 0.015654)
(-1.669841e-05 -0.002039649 0.05524862)
(-0.0002091022 -0.006506642 0.165944)
(-6.970506e-06 0.005649857 0.05997575)
(-5.241998e-05 0.01637959 0.1795224)
(-9.105404e-06 -0.00528805 0.06078947)
(-6.842839e-05 -0.01531195 0.1819647)
(-1.75004e-05 0.005915914 0.05658572)
(-0.0002256782 0.01793886 0.1700162)
(-5.35585e-06 0.01474333 0.00715823)
(-8.380549e-05 0.04396166 0.02233513)
(-3.815383e-06 -0.01034306 0.001520054)
(-9.779816e-05 -0.03078691 0.005381525)
(-1.549103e-05 -0.0009803471 0.05327366)
(-0.0001969303 -0.003395285 0.1601208)
(-3.740505e-06 0.00608106 0.05816054)
(-4.665356e-05 0.01771157 0.1742482)
(-1.467737e-05 -0.003147286 0.05861153)
(-0.0001180849 -0.008948839 0.175653)
(-1.888846e-05 0.01541363 0.0552142)
(-0.0002495278 0.04592373 0.1661191)
(-3.846469e-06 0.01987438 0.008782307)
(-2.991617e-05 0.05926379 0.02759474)
(1.628491e-07 -0.00589774 -0.009161277)
(-9.174186e-05 -0.01739672 -0.02652883)
(-1.193553e-05 0.001861614 0.04106621)
(-0.0001360889 0.005221019 0.1236942)
(-6.217847e-06 0.004580546 0.04266357)
(-7.005728e-05 0.01349038 0.1284638)
(-3.324131e-05 0.001661025 0.04199126)
(-0.0002607201 0.005420622 0.1268441)
(-2.443802e-05 0.04446977 0.03648275)
(-0.0003503945 0.1317562 0.1113369)
(9.346181e-06 0.03881602 -0.006142197)
(0.0002126107 0.1156469 -0.01506123)
(9.21193e-06 -0.01071661 -0.04166321)
(-6.639993e-05 -0.03080046 -0.1222537)
(-6.23675e-06 0.004302687 0.009975728)
(-0.0001232446 0.01232028 0.03038249)
(-3.329959e-06 -0.01529989 0.03442746)
(-4.009583e-05 -0.0463639 0.1042749)
(-1.794149e-05 -0.0144774 0.07370272)
(-0.0001745502 -0.04384764 0.2207594)
(-1.249323e-05 0.008218346 0.06355578)
(-9.091649e-05 0.02402434 0.1904404)
(7.003938e-06 0.001203224 0.05038334)
(3.763456e-05 0.003444736 0.1508161)
(-3.673427e-07 -0.001773862 0.05421867)
(-1.696429e-05 -0.005223661 0.1621935)
(-1.715125e-06 0.003585902 0.02787199)
(-5.012225e-05 0.01079813 0.08321178)
(-8.423524e-07 -0.0113781 0.04019149)
(-1.42123e-05 -0.03415878 0.120436)
(-7.963151e-06 -0.006549845 0.07375936)
(-8.683699e-05 -0.01978736 0.2206069)
(2.901626e-07 0.003191794 0.06308316)
(-1.160639e-06 0.009355227 0.1887147)
(7.775098e-06 -0.003510822 0.05964357)
(4.263751e-05 -0.01036038 0.178443)
(-4.472123e-06 -0.003018197 0.06843172)
(-4.652953e-05 -0.008755093 0.2045575)
(-2.884891e-06 0.005421798 0.03677708)
(-5.458911e-05 0.01631529 0.1098364)
(-3.716142e-06 -0.007998427 0.04074096)
(-4.31696e-05 -0.0240739 0.1217529)
(-5.968859e-06 -0.0005305324 0.07280462)
(-6.509455e-05 -0.001768807 0.2176282)
(5.146803e-06 0.003236046 0.062534)
(3.003983e-05 0.009524091 0.1869965)
(7.072955e-06 -0.003581845 0.06133093)
(4.014992e-05 -0.01054442 0.1833964)
(-5.049819e-06 -0.002287628 0.07105087)
(-5.431586e-05 -0.006589728 0.2123661)
(-3.588629e-06 0.006295503 0.0391739)
(-5.24083e-05 0.01893598 0.1170029)
(-3.985966e-06 -0.006948437 0.04017165)
(-5.090684e-05 -0.02092115 0.1199863)
(-5.4696e-06 0.001494738 0.07204371)
(-5.896981e-05 0.004243506 0.2153383)
(6.93022e-06 0.003460252 0.06192295)
(3.970258e-05 0.01018754 0.1851621)
(6.925094e-06 -0.003460363 0.06190948)
(3.957694e-05 -0.01019381 0.1851236)
(-5.358763e-06 -0.001467319 0.07203469)
(-5.846958e-05 -0.004172642 0.2153123)
(-3.946036e-06 0.006938908 0.04016774)
(-5.059073e-05 0.02087312 0.1199769)
(-3.610431e-06 -0.00630695 0.03916143)
(-5.261139e-05 -0.01898596 0.1169677)
(-5.373875e-06 0.002298997 0.07105519)
(-5.527305e-05 0.006615932 0.2123811)
(7.062282e-06 0.003592789 0.06133143)
(4.029593e-05 0.01056826 0.183398)
(5.087739e-06 -0.003236319 0.06252243)
(2.990159e-05 -0.009532306 0.1869647)
(-5.699782e-06 0.0005318483 0.07280085)
(-6.417847e-05 0.00176235 0.2176178)
(-3.691793e-06 0.007999569 0.0407406)
(-4.310413e-05 0.02406072 0.1217519)
(-3.194661e-06 -0.005417653 0.03678429)
(-5.528056e-05 -0.01631984 0.1098552)
(-5.15723e-06 0.003001406 0.06842355)
(-4.853072e-05 0.008700009 0.2045238)
(5.529093e-06 0.003510357 0.05961769)
(3.725321e-05 0.01035888 0.1783584)
(3.890318e-07 -0.003194672 0.06310505)
(-7.646023e-07 -0.009365157 0.1887783)
(-7.971663e-06 0.006553962 0.07377692)
(-8.659583e-05 0.01979144 0.2206589)
(-1.017509e-06 0.01138606 0.04019149)
(-1.463056e-05 0.03417229 0.1204368)
(-1.93263e-06 -0.003600609 0.02788514)
(-5.064516e-05 -0.01084739 0.08324932)
(2.784059e-08 0.00176673 0.05425807)
(-1.636511e-05 0.005199919 0.1623096)
(7.048005e-06 -0.001187941 0.05038964)
(3.767612e-05 -0.00340274 0.1508347)
(-1.248875e-05 -0.008186872 0.06354768)
(-9.073985e-05 -0.02393389 0.1904151)
(-1.859149e-05 0.01448458 0.07371335)
(-0.0001762605 0.04386173 0.2207888)
(-3.329604e-06 0.01531587 0.03442604)
(-4.010832e-05 0.04641127 0.1042696)
(-6.127935e-06 -0.004302434 0.009976876)
(-0.0001229306 -0.0123153 0.03038342)
(-2.482498e-06 0.003135839 0.0280149)
(-7.273674e-05 0.009116968 0.08361555)
(-1.474627e-07 -0.002306281 0.05298114)
(-5.033066e-05 -0.00768015 0.1587235)
(-3.460606e-06 -0.0001503979 0.07661088)
(-3.699287e-05 -0.001252425 0.2293026)
(1.164971e-06 0.008850928 0.0645247)
(-3.187627e-06 0.02609812 0.1931999)
(1.207524e-05 0.001668868 0.04825142)
(7.303727e-05 0.004875083 0.1443664)
(6.760165e-06 -0.0060234 0.0506433)
(3.032372e-05 -0.01771744 0.1515076)
(2.164867e-06 -0.002574765 0.03123776)
(-4.156348e-05 -0.007585921 0.09325443)
(-5.213338e-07 -0.00203727 0.04368819)
(-4.184731e-05 -0.006459418 0.1308213)
(2.202909e-06 0.001118961 0.07018056)
(-8.63208e-06 0.002958794 0.2100453)
(7.396268e-06 0.003819393 0.05976898)
(3.87371e-05 0.01124018 0.1788903)
(1.179849e-05 -0.003613391 0.05489498)
(6.706439e-05 -0.01069235 0.1642303)
(4.483651e-06 -0.007465323 0.06358821)
(1.656757e-05 -0.02187467 0.190295)
(1.751294e-08 -0.002174115 0.03898194)
(-5.605338e-05 -0.006216529 0.1163962)
(-1.075644e-07 0.0003195289 0.04267971)
(-4.58348e-05 0.0006252215 0.1275668)
(3.217227e-06 0.004340849 0.06913068)
(3.928791e-06 0.01257624 0.2068588)
(9.788323e-06 0.003575116 0.05839394)
(5.465568e-05 0.01055669 0.1746932)
(1.113738e-05 -0.003859648 0.05686383)
(6.325483e-05 -0.011413 0.1700827)
(3.763428e-06 -0.006901775 0.06680571)
(1.044233e-05 -0.02020734 0.1998787)
(-2.507568e-07 -0.001430443 0.04139906)
(-5.503644e-05 -0.003971515 0.1236501)
(-2.593531e-07 0.001029675 0.04226565)
(-5.215544e-05 0.002751838 0.1262698)
(3.324358e-06 0.00611961 0.068086)
(7.438254e-06 0.0178815 0.2037105)
(1.075876e-05 0.003696415 0.05754811)
(6.098759e-05 0.01092504 0.1721348)
(1.082745e-05 -0.003687291 0.05753956)
(6.117893e-05 -0.01090192 0.1721098)
(3.514427e-06 -0.006108 0.06807797)
(8.120146e-06 -0.01785563 0.2036855)
(-2.05328e-07 -0.001025936 0.04226466)
(-5.198248e-05 -0.002758311 0.126268)
(-3.392619e-07 0.001434601 0.04139244)
(-5.526057e-05 0.003966576 0.1236294)
(3.467686e-06 0.006899045 0.06681478)
(9.495557e-06 0.02019089 0.1999042)
(1.113272e-05 0.003867449 0.05689033)
(6.320473e-05 0.01143055 0.1701585)
(9.731574e-06 -0.003570146 0.05839297)
(5.453676e-05 -0.01054909 0.1746904)
(3.438691e-06 -0.004342383 0.06912292)
(4.705136e-06 -0.01259229 0.2068351)
(-7.356004e-08 -0.0003189246 0.04267496)
(-4.577824e-05 -0.0006420822 0.1275527)
(2.368438e-07 0.002179009 0.03898688)
(-5.553426e-05 0.006212918 0.1164112)
(4.320113e-06 0.007480263 0.06355096)
(1.597397e-05 0.02189966 0.1901884)
(1.098998e-05 0.003607033 0.05487422)
(6.494981e-05 0.01067126 0.1641663)
(7.386074e-06 -0.003825144 0.05979114)
(3.875411e-05 -0.01126032 0.1789567)
(2.211926e-06 -0.001115699 0.07019324)
(-8.463343e-06 -0.002956501 0.2100846)
(-4.336713e-07 0.002034682 0.04368494)
(-4.162364e-05 0.006443858 0.1308109)
(2.265635e-06 0.00257206 0.03122549)
(-4.125025e-05 0.007570241 0.09321644)
(6.371941e-06 0.006025056 0.05067017)
(2.922355e-05 0.0177159 0.1515886)
(1.217571e-05 -0.001656793 0.04825985)
(7.319318e-05 -0.004843631 0.1443895)
(1.192377e-06 -0.008835605 0.06449148)
(-3.020137e-06 -0.02605132 0.1931004)
(-3.614842e-06 0.0001437237 0.07660283)
(-3.72515e-05 0.001228011 0.2292767)
(-1.119229e-07 0.002298339 0.05297103)
(-5.034445e-05 0.007655011 0.158694)
(-2.462103e-06 -0.00313447 0.02800636)
(-7.27088e-05 -0.009111414 0.08358951)
(-6.347173e-07 0.001833315 0.03737063)
(-3.915842e-05 0.005361436 0.1114165)
(1.222585e-06 0.001574302 0.06112087)
(-3.446894e-05 0.004111622 0.1827765)
(2.557531e-07 0.00448515 0.0759769)
(-5.614816e-06 0.01279186 0.2273463)
(5.514187e-06 0.007945007 0.06551064)
(1.576068e-05 0.02348508 0.1960467)
(9.489092e-06 0.003236247 0.0480771)
(5.289992e-05 0.009437647 0.1437592)
(5.437609e-06 -0.002443785 0.05182822)
(1.773862e-05 -0.007275739 0.1548585)
(2.180358e-06 -0.00124534 0.03716909)
(-5.128049e-06 -0.003635817 0.1108567)
(2.207063e-06 -0.0016554 0.04902575)
(-1.80912e-05 -0.005121927 0.1466304)
(2.028053e-06 0.001327701 0.06923391)
(-3.026028e-06 0.003706485 0.207178)
(6.626596e-06 0.003019789 0.05834639)
(2.636512e-05 0.008946106 0.1745556)
(8.971733e-06 -0.00199913 0.05326341)
(4.414443e-05 -0.005949203 0.1592333)
(4.438657e-06 -0.00429102 0.06304955)
(8.839444e-06 -0.01275186 0.1885648)
(1.143343e-06 -0.0007881367 0.04365902)
(-1.512704e-05 -0.002283589 0.130268)
(1.547372e-06 -0.0005511438 0.04720123)
(-1.662407e-05 -0.001752363 0.1409489)
(3.283871e-06 0.002853534 0.06799805)
(2.964448e-06 0.008361856 0.2034093)
(7.975855e-06 0.002461279 0.0564633)
(3.686514e-05 0.007307939 0.168852)
(8.635895e-06 -0.002567987 0.05519082)
(4.136387e-05 -0.007642215 0.1650045)
(3.920268e-06 -0.004191195 0.06609346)
(5.947239e-06 -0.012406 0.1976844)
(1.10674e-06 -0.0004116788 0.04600813)
(-1.672151e-05 -0.001131727 0.137284)
(1.034477e-06 -7.083848e-05 0.04680927)
(-1.863804e-05 -0.0003109993 0.1397204)
(3.457718e-06 0.003900999 0.06729658)
(4.022265e-06 0.01152643 0.2012926)
(8.529478e-06 0.002539326 0.05575936)
(4.074885e-05 0.007547047 0.1667096)
(8.58022e-06 -0.002540645 0.05575055)
(4.089452e-05 -0.007554556 0.1666847)
(3.667501e-06 -0.003896041 0.06729975)
(4.751723e-06 -0.01152106 0.2013038)
(1.057078e-06 8.148118e-05 0.04681231)
(-1.86334e-05 0.0003259584 0.1397303)
(1.119203e-06 0.000420779 0.04601082)
(-1.664036e-05 0.001142452 0.1372881)
(3.666837e-06 0.004185965 0.0661023)
(5.080022e-06 0.01237895 0.1977062)
(8.590418e-06 0.002568778 0.05521906)
(4.120171e-05 0.007639345 0.1650867)
(7.96499e-06 -0.002461144 0.05646291)
(3.687594e-05 -0.007313394 0.1688502)
(3.489322e-06 -0.002855721 0.06800069)
(3.63358e-06 -0.008379111 0.2034175)
(1.567783e-06 0.000556773 0.04719606)
(-1.657528e-05 0.001752613 0.1409333)
(1.1108e-06 0.0007939763 0.0436569)
(-1.520692e-05 0.002285005 0.1302625)
(4.427631e-06 0.004290428 0.0630303)
(8.618253e-06 0.01274255 0.1885092)
(8.880197e-06 0.00199605 0.05325507)
(4.38631e-05 0.005936382 0.1592086)
(6.694825e-06 -0.00301335 0.05834913)
(2.660383e-05 -0.008929099 0.1745651)
(2.113975e-06 -0.001326168 0.06922821)
(-2.558377e-06 -0.003710217 0.207158)
(2.321874e-06 0.001652804 0.04905174)
(-1.781107e-05 0.00510189 0.1467057)
(2.143718e-06 0.001234583 0.03716791)
(-5.299224e-06 0.003593391 0.1108524)
(5.265927e-06 0.002437404 0.05183663)
(1.711421e-05 0.007249904 0.1548854)
(9.413968e-06 -0.003209108 0.04807808)
(5.262719e-05 -0.009362787 0.1437578)
(5.504988e-06 -0.007933585 0.06547675)
(1.573686e-05 -0.02345111 0.195941)
(2.56319e-07 -0.004483511 0.07597419)
(-5.53511e-06 -0.01278858 0.227334)
(1.226245e-06 -0.001572729 0.06112671)
(-3.448037e-05 -0.004108633 0.1827924)
(-6.359823e-07 -0.001829792 0.03737453)
(-3.913657e-05 -0.005350459 0.1114257)
(1.250716e-06 0.001165352 0.03928493)
(-2.245717e-05 0.003439754 0.1171831)
(2.295714e-06 0.003466445 0.06202868)
(-2.669838e-05 0.00992706 0.1854796)
(2.412596e-06 0.006335489 0.0732257)
(7.724532e-06 0.01853895 0.2191607)
(6.304762e-06 0.007158712 0.06445285)
(2.008997e-05 0.02120184 0.1930233)
(8.977105e-06 0.003824739 0.04660879)
(4.657309e-05 0.01129217 0.1393797)
(6.242681e-06 -0.001848398 0.0506083)
(2.319256e-05 -0.005543984 0.1511321)
(3.349713e-06 -0.001489219 0.03560305)
(5.277541e-07 -0.004429781 0.1062977)
(3.561749e-06 -0.0002335521 0.04800287)
(-1.768358e-05 -0.0008276511 0.143569)
(3.363771e-06 0.003087727 0.06566586)
(6.87253e-06 0.008975661 0.1965087)
(7.448413e-06 0.002711669 0.05588837)
(2.792427e-05 0.008055647 0.1671402)
(8.098764e-06 -0.001388299 0.05087775)
(3.69174e-05 -0.004143114 0.1521007)
(5.6516e-06 -0.003354466 0.05979445)
(1.23668e-05 -0.01000059 0.1788881)
(2.924404e-06 -0.0008712179 0.0407613)
(-3.460785e-06 -0.002558084 0.1217357)
(3.274763e-06 0.0001458992 0.04511645)
(-1.117267e-05 0.0003274859 0.1348406)
(4.051408e-06 0.00337949 0.06442752)
(9.66812e-06 0.009952278 0.1927711)
(8.016723e-06 0.001965465 0.05374224)
(3.302292e-05 0.005847986 0.1607131)
(8.062188e-06 -0.00191124 0.05250609)
(3.552176e-05 -0.005689146 0.1569887)
(4.923691e-06 -0.003758597 0.06244099)
(1.075462e-05 -0.01117098 0.18679)
(3.033709e-06 -0.0006882027 0.04330322)
(-7.243545e-06 -0.001990555 0.1293551)
(3.144657e-06 0.0004356929 0.04420884)
(-8.011738e-06 0.001218113 0.1320827)
(4.537087e-06 0.003655666 0.06366975)
(1.036761e-05 0.01081144 0.1904973)
(8.004432e-06 0.001909921 0.05310751)
(3.415124e-05 0.00569137 0.1587811)
(8.022498e-06 -0.001910884 0.05309397)
(3.42032e-05 -0.005699861 0.1587414)
(4.811168e-06 -0.003654904 0.06364656)
(1.12802e-05 -0.01081884 0.1904308)
(3.18106e-06 -0.000429217 0.0442069)
(-7.908507e-06 -0.00121702 0.1320786)
(3.007922e-06 0.0006993697 0.04331002)
(-7.323901e-06 0.002006297 0.1293732)
(4.650788e-06 0.003754537 0.06247135)
(9.859648e-06 0.01114894 0.1868759)
(8.035911e-06 0.001910209 0.05253319)
(3.540457e-05 0.005680577 0.1570703)
(8.044509e-06 -0.001959635 0.05373893)
(3.313701e-05 -0.005836866 0.1607028)
(4.218635e-06 -0.003384135 0.06441775)
(1.030422e-05 -0.009977306 0.1927406)
(3.283334e-06 -0.0001520131 0.04510897)
(-1.115878e-05 -0.0003606724 0.1348162)
(2.911875e-06 0.0008654641 0.04075961)
(-3.512435e-06 0.002526614 0.1217301)
(5.502569e-06 0.003350896 0.05978351)
(1.181593e-05 0.00998033 0.1788546)
(8.04199e-06 0.001385609 0.05086719)
(3.670932e-05 0.00412943 0.1520663)
(7.478249e-06 -0.002718907 0.05588979)
(2.803331e-05 -0.008079605 0.1671446)
(3.42936e-06 -0.003076926 0.06568293)
(7.156309e-06 -0.008950234 0.1965589)
(3.638093e-06 0.0002436101 0.04802455)
(-1.743712e-05 0.0008501184 0.1436326)
(3.347179e-06 0.001483094 0.03560101)
(8.019773e-07 0.004395757 0.1062875)
(6.028463e-06 0.001846496 0.05060334)
(2.232021e-05 0.005528649 0.15112)
(8.908801e-06 -0.003796852 0.0466255)
(4.618673e-05 -0.01121157 0.1394251)
(6.353319e-06 -0.007145499 0.06443136)
(2.024769e-05 -0.02116268 0.1929509)
(2.42853e-06 -0.00633705 0.07321021)
(7.841682e-06 -0.01854428 0.2191119)
(2.291961e-06 -0.003466429 0.06202623)
(-2.675539e-05 -0.009928207 0.1854692)
(1.256558e-06 -0.001165026 0.03928638)
(-2.243461e-05 -0.003438047 0.1171842)
(2.162786e-06 0.0004970016 0.0392362)
(-1.037003e-05 0.001490995 0.117053)
(2.958829e-06 0.003521941 0.06129299)
(-1.557639e-05 0.01025965 0.1832474)
(2.884792e-06 0.005813246 0.07049392)
(8.817691e-06 0.01717249 0.2109882)
(6.646805e-06 0.006167311 0.0628999)
(1.883807e-05 0.0183302 0.1883671)
(7.240389e-06 0.003823102 0.04655639)
(3.44975e-05 0.01146636 0.139209)
(7.420776e-06 -0.0004909383 0.05081816)
(2.581739e-05 -0.001618787 0.1518496)
(2.832947e-06 -0.0007279569 0.03573679)
(3.081115e-06 -0.002352692 0.1067015)
(2.809057e-06 -6.570018e-05 0.04788564)
(-1.660658e-05 -0.0002794899 0.1430794)
(3.111116e-06 0.00337035 0.06402208)
(5.015107e-06 0.009867231 0.1915808)
(6.88139e-06 0.002450544 0.05518396)
(2.316248e-05 0.007288479 0.1649829)
(6.538207e-06 -0.0007291163 0.0500969)
(2.685748e-05 -0.002241294 0.1497297)
(5.439701e-06 -0.002042251 0.05798482)
(9.389096e-06 -0.006100445 0.17345)
(3.18927e-06 -0.0005573194 0.03998934)
(2.693194e-06 -0.00162946 0.1194027)
(3.301905e-06 2.691542e-05 0.04436065)
(-8.330753e-06 2.305323e-05 0.1325617)
(3.698457e-06 0.00306372 0.06241602)
(6.414037e-06 0.00907608 0.1867366)
(7.118436e-06 0.001659083 0.05265844)
(2.597986e-05 0.004942814 0.1574183)
(6.920301e-06 -0.001484324 0.0515208)
(2.665985e-05 -0.004411455 0.1540173)
(4.850283e-06 -0.00261389 0.06077896)
(7.754459e-06 -0.007800194 0.1818426)
(3.259735e-06 -0.0002380431 0.04224962)
(-4.648775e-07 -0.0007127894 0.1261988)
(3.354921e-06 6.71013e-05 0.04311834)
(-3.530514e-06 0.0001424991 0.1288099)
(3.924995e-06 0.002951721 0.0616799)
(5.136807e-06 0.008773015 0.1845232)
(6.929335e-06 0.00152061 0.05209191)
(2.631984e-05 0.004530137 0.1557225)
(6.966454e-06 -0.001518333 0.05208312)
(2.645455e-05 -0.004529257 0.1556949)
(4.172303e-06 -0.002955309 0.06166601)
(5.920673e-06 -0.008794891 0.1844811)
(3.369463e-06 -5.631076e-05 0.04311126)
(-3.532945e-06 -0.0001275467 0.1287897)
(3.211235e-06 0.0002482535 0.04225769)
(-5.514278e-07 0.0007269506 0.1262212)
(4.610752e-06 0.002606922 0.06080363)
(7.022172e-06 0.00776869 0.181917)
(6.877537e-06 0.001487567 0.05153602)
(2.64917e-05 0.00441514 0.1540643)
(7.165526e-06 -0.001654193 0.05265485)
(2.617904e-05 -0.004932464 0.1574062)
(3.87692e-06 -0.003071408 0.06241659)
(7.127521e-06 -0.009111601 0.1867366)
(3.340201e-06 -3.712781e-05 0.04435839)
(-8.239717e-06 -7.149811e-05 0.1325546)
(3.144099e-06 0.000545889 0.03998609)
(2.579641e-06 0.001576302 0.1193918)
(5.282931e-06 0.002036276 0.05798188)
(8.695538e-06 0.006070095 0.1734402)
(6.462356e-06 0.0007350962 0.05011074)
(2.65913e-05 0.00225423 0.1497666)
(6.911225e-06 -0.00245464 0.0551769)
(2.330081e-05 -0.007306793 0.1649592)
(3.228091e-06 -0.003378965 0.06400423)
(5.515994e-06 -0.009900592 0.1915263)
(2.860851e-06 5.871313e-05 0.04789874)
(-1.659149e-05 0.0002467183 0.1431195)
(2.720675e-06 0.0007564712 0.03573494)
(2.66012e-06 0.002422556 0.1066918)
(7.273387e-06 0.0005071139 0.05080264)
(2.517893e-05 0.001657584 0.1517965)
(7.239858e-06 -0.003803085 0.04657657)
(3.457942e-05 -0.01140408 0.1392644)
(6.675639e-06 -0.006152955 0.06288847)
(1.890344e-05 -0.01828959 0.1883253)
(2.903931e-06 -0.005821436 0.07047768)
(8.904851e-06 -0.01719596 0.2109344)
(2.949618e-06 -0.003520391 0.06130162)
(-1.565258e-05 -0.01025564 0.1832695)
(2.165725e-06 -0.0004968532 0.03923881)
(-1.035296e-05 -0.001490076 0.1170568)
(3.01653e-06 6.881522e-05 0.03773566)
(-2.63842e-06 0.0002247387 0.1126055)
(3.730197e-06 0.003061739 0.05823888)
(-8.051054e-06 0.009009222 0.1740967)
(3.485834e-06 0.005047906 0.06806265)
(9.506318e-06 0.01496669 0.2036673)
(6.321999e-06 0.005219119 0.0609463)
(1.646059e-05 0.01555993 0.1823983)
(7.071547e-06 0.002801236 0.04625314)
(2.653678e-05 0.008589391 0.1382749)
(8.954354e-06 0.0005968872 0.04994025)
(2.640621e-05 0.001634405 0.1494165)
(3.818309e-06 0.0003452306 0.03507758)
(1.03481e-05 0.0007611437 0.1047233)
(3.247947e-06 0.0004363705 0.04688382)
(-1.411278e-05 0.00113886 0.1399756)
(3.010173e-06 0.003937701 0.06171637)
(5.149195e-06 0.01158053 0.1846591)
(6.801356e-06 0.002302117 0.05392916)
(2.235867e-05 0.006836557 0.1612821)
(6.064919e-06 7.637737e-05 0.04924391)
(2.259815e-05 0.0001093335 0.147186)
(4.835472e-06 -0.001446481 0.05602655)
(8.711548e-06 -0.004318749 0.1675399)
(3.818444e-06 -0.0003876949 0.03837453)
(5.762086e-06 -0.001123351 0.1146165)
(3.669245e-06 0.0001363038 0.04239221)
(-3.74251e-06 0.0003771484 0.1266979)
(3.888216e-06 0.002803218 0.06068913)
(6.039645e-06 0.008330314 0.1815748)
(6.692305e-06 0.001494179 0.05164612)
(2.284985e-05 0.004444505 0.1543846)
(6.151239e-06 -0.001205063 0.05041605)
(2.151788e-05 -0.003635031 0.1506895)
(5.041398e-06 -0.002036174 0.0585104)
(6.705213e-06 -0.006049521 0.1750614)
(3.869782e-06 6.285552e-05 0.0402348)
(3.592306e-06 0.0002098918 0.1201971)
(3.731365e-06 7.887068e-05 0.04105114)
(1.192085e-06 0.0002229348 0.1226636)
(3.910287e-06 0.002339049 0.05994823)
(5.32987e-06 0.007008833 0.1793672)
(6.594534e-06 0.00134661 0.05092587)
(2.271455e-05 0.00399444 0.1522461)
(6.630648e-06 -0.001345413 0.05092682)
(2.284839e-05 -0.003996063 0.1522475)
(4.138698e-06 -0.00233729 0.05993243)
(6.070424e-06 -0.007015987 0.1793207)
(3.760638e-06 -7.337603e-05 0.04104347)
(1.302948e-06 -0.0002241535 0.122642)
(3.820414e-06 -5.987977e-05 0.04025769)
(3.427612e-06 -0.0002178561 0.1202637)
(4.841176e-06 0.00203138 0.0585241)
(6.046909e-06 0.006021839 0.1751011)
(6.079472e-06 0.001204672 0.05042378)
(2.124542e-05 0.003629949 0.150712)
(6.729785e-06 -0.001499792 0.05164911)
(2.297824e-05 -0.004464173 0.1543917)
(4.109103e-06 -0.00280322 0.06068508)
(6.83145e-06 -0.008342416 0.1815638)
(3.684326e-06 -0.0001369533 0.04237715)