/*--------------------------------*- C++ -*----------------------------------*\
| =========                 |                                                 |
| \\      /  F ield         | OpenFOAM: The Open Source CFD Toolbox           |
|  \\    /   O peration     | Version:  4.0                                   |
|   \\  /    A nd           | Web:      www.OpenFOAM.org                      |
|    \\/     M anipulation  |                                                 |
\*---------------------------------------------------------------------------*/
FoamFile
{
    version     2.0;
    format      ascii;
    class       volScalarField;
    location    "120/fuel";
    object      XCH3OHfuel;
}
// * * * * * * * * * * * * * * * * * * * * * * * * * * * * * * * * * * * * * //

dimensions      [0 0 0 0 0 0 0];

internalField   nonuniform List<scalar> 
39776
(
0.8328442
0.832864
0.8337762
0.8337964
0.8343701
0.8343909
0.8344262
0.8344471
0.8344194
0.8344403
0.8343751
0.8343958
0.8338843
0.8339045
0.8339156
0.8339359
0.8343793
0.8344001
0.8344213
0.8344421
0.834422
0.8344428
0.8343794
0.8344001
0.8339079
0.8339281
0.8339126
0.8339328
0.83438
0.8344007
0.8344228
0.8344435
0.8344226
0.8344433
0.8343803
0.8344009
0.8339113
0.8339315
0.833913
0.8339332
0.8343806
0.8344012
0.8344228
0.8344435
0.8344228
0.8344435
0.8343806
0.8344012
0.833913
0.8339331
0.8339105
0.8339307
0.8343797
0.8344004
0.8344221
0.8344428
0.8344224
0.8344431
0.83438
0.8344007
0.8339107
0.8339309
0.8339056
0.8339259
0.8343781
0.8343988
0.8344209
0.8344416
0.8344219
0.8344427
0.8343801
0.8344008
0.833917
0.8339372
0.8338855
0.8339057
0.8343759
0.8343966
0.8344213
0.8344421
0.8344295
0.8344502
0.8343739
0.8343946
0.8337837
0.8338039
0.8328575
0.8328771
0.8331384
0.8331581
0.8337738
0.8337939
0.8342555
0.834276
0.8343152
0.8343358
0.8343065
0.8343271
0.8342428
0.8342633
0.8337688
0.8337888
0.8338078
0.8338279
0.8342506
0.8342711
0.8343075
0.834328
0.8343066
0.8343271
0.8342466
0.8342671
0.833789
0.8338091
0.8337968
0.8338169
0.8342481
0.8342686
0.8343065
0.8343271
0.8343051
0.8343257
0.8342461
0.8342666
0.8337904
0.8338106
0.8337931
0.8338133
0.8342466
0.8342671
0.8343052
0.8343258
0.8343053
0.8343259
0.8342466
0.8342672
0.8337932
0.8338133
0.8337903
0.8338105
0.8342471
0.8342676
0.8343061
0.8343267
0.8343065
0.834327
0.8342481
0.8342686
0.8337964
0.8338165
0.8337889
0.833809
0.8342466
0.8342671
0.8343063
0.8343268
0.8343076
0.8343282
0.834251
0.8342715
0.8338083
0.8338284
0.8337692
0.8337893
0.8342431
0.8342636
0.8343071
0.8343277
0.8343163
0.8343369
0.8342565
0.834277
0.8337761
0.8337962
0.8331427
0.8331625
0.8329582
0.8329779
0.8335758
0.8335958
0.8341279
0.8341483
0.8342131
0.8342336
0.8342021
0.8342226
0.8341096
0.83413
0.8335995
0.8336195
0.8336373
0.8336574
0.8341211
0.8341415
0.8342039
0.8342244
0.8342024
0.8342229
0.8341151
0.8341355
0.8336183
0.8336383
0.83363
0.83365
0.8341194
0.8341398
0.8342041
0.8342246
0.8342034
0.8342238
0.8341176
0.834138
0.8336227
0.8336427
0.8336266
0.8336466
0.8341186
0.8341389
0.834204
0.8342244
0.834204
0.8342245
0.8341187
0.834139
0.8336266
0.8336466
0.8336226
0.8336426
0.8341178
0.8341381
0.8342036
0.834224
0.8342041
0.8342246
0.8341194
0.8341398
0.8336297
0.8336497
0.8336179
0.8336379
0.8341148
0.8341352
0.8342022
0.8342227
0.834204
0.8342245
0.8341213
0.8341418
0.8336377
0.8336578
0.8335998
0.8336199
0.8341098
0.8341302
0.8342025
0.834223
0.8342138
0.8342343
0.8341289
0.8341494
0.8335781
0.833598
0.8329617
0.8329814
0.8326866
0.8327062
0.83329
0.8333098
0.8339833
0.8340036
0.8341124
0.8341327
0.8341021
0.8341224
0.8339677
0.8339879
0.8334132
0.8334331
0.8334413
0.8334612
0.8339873
0.8340075
0.8341057
0.834126
0.8341029
0.8341232
0.833975
0.8339952
0.8334276
0.8334475
0.8334362
0.8334561
0.8339827
0.8340029
0.8341043
0.8341247
0.8341031
0.8341234
0.8339773
0.8339975
0.8334287
0.8334487
0.8334317
0.8334516
0.833979
0.8339993
0.8341025
0.8341229
0.8341025
0.8341229
0.8339791
0.8339994
0.8334317
0.8334517
0.8334286
0.8334485
0.833976
0.8339963
0.8341019
0.8341223
0.8341043
0.8341246
0.8339827
0.8340029
0.833436
0.8334559
0.8334266
0.8334465
0.8339742
0.8339945
0.8341027
0.834123
0.8341057
0.8341261
0.8339875
0.8340077
0.8334417
0.8334616
0.8334134
0.8334333
0.8339678
0.833988
0.8341024
0.8341227
0.834113
0.8341334
0.8339848
0.8340051
0.8332928
0.8333126
0.8326897
0.8327093
0.8324101
0.8324296
0.8330155
0.8330352
0.8338438
0.8338639
0.83402
0.8340403
0.8340113
0.8340316
0.8338453
0.8338655
0.8332272
0.833247
0.8332479
0.8332678
0.833866
0.8338862
0.8340158
0.8340361
0.834012
0.8340323
0.8338511
0.8338713
0.8332385
0.8332583
0.8332459
0.8332658
0.833864
0.8338842
0.8340161
0.8340363
0.8340141
0.8340343
0.8338559
0.833876
0.8332422
0.833262
0.8332453
0.8332651
0.8338611
0.8338813
0.8340154
0.8340356
0.8340154
0.8340357
0.8338612
0.8338814
0.8332454
0.8332652
0.8332426
0.8332624
0.8338559
0.8338761
0.8340142
0.8340344
0.8340165
0.8340367
0.833864
0.8338842
0.8332472
0.833267
0.8332394
0.8332592
0.8338518
0.833872
0.8340129
0.8340331
0.8340153
0.8340357
0.8338656
0.8338858
0.8332475
0.8332674
0.8332266
0.8332464
0.8338447
0.8338649
0.8340099
0.8340303
0.8340177
0.8340381
0.8338419
0.8338622
0.8330139
0.8330338
0.8324086
0.8324282
0.8321287
0.8321483
0.8327383
0.8327581
0.8336872
0.8337074
0.8339287
0.833949
0.8339272
0.8339475
0.8337279
0.833748
0.8330513
0.8330711
0.8330666
0.8330864
0.8337454
0.8337656
0.8339331
0.8339534
0.8339298
0.8339501
0.8337311
0.8337512
0.8330616
0.8330813
0.8330685
0.8330883
0.8337485
0.8337686
0.8339354
0.8339556
0.8339326
0.8339528
0.8337384
0.8337585
0.8330652
0.8330849
0.8330675
0.8330873
0.8337433
0.8337634
0.8339339
0.8339541
0.8339339
0.8339541
0.8337434
0.8337635
0.8330676
0.8330874
0.8330647
0.8330845
0.8337378
0.8337579
0.8339322
0.8339524
0.8339351
0.8339554
0.8337487
0.8337688
0.8330678
0.8330876
0.8330605
0.8330803
0.8337302
0.8337504
0.8339292
0.8339494
0.8339336
0.8339539
0.8337461
0.8337662
0.8330674
0.8330872
0.8330519
0.8330717
0.8337284
0.8337485
0.8339284
0.8339487
0.8339309
0.8339512
0.8336902
0.8337102
0.8327426
0.8327622
0.8321334
0.8321529
0.8318496
0.831869
0.8324834
0.832503
0.8335557
0.8335756
0.8338513
0.8338714
0.8338555
0.8338756
0.8336263
0.8336463
0.8328875
0.8329071
0.8328997
0.8329193
0.8336481
0.8336681
0.8338631
0.8338833
0.8338578
0.8338779
0.8336295
0.8336496
0.832894
0.8329137
0.8329009
0.8329206
0.8336494
0.8336695
0.8338637
0.8338839
0.8338595
0.8338798
0.8336371
0.8336572
0.8328961
0.8329158
0.8328979
0.8329176
0.8336404
0.8336605
0.8338604
0.8338806
0.8338605
0.8338807
0.8336405
0.8336606
0.832898
0.8329177
0.832896
0.8329157
0.8336379
0.8336579
0.8338603
0.8338805
0.8338637
0.8338839
0.8336496
0.8336696
0.8329008
0.8329205
0.8328941
0.8329138
0.8336296
0.8336496
0.8338576
0.8338778
0.8338633
0.8338834
0.8336485
0.8336685
0.8329001
0.8329198
0.8328877
0.8329074
0.8336264
0.8336464
0.8338559
0.833876
0.8338521
0.8338723
0.8335568
0.8335768
0.8324856
0.8325052
0.8318525
0.8318719
0.8315709
0.8315902
0.8322419
0.8322614
0.8334342
0.8334542
0.833778
0.8337982
0.8337878
0.833808
0.8335327
0.8335527
0.8327321
0.8327518
0.8327434
0.8327631
0.8335614
0.8335815
0.8337987
0.8338189
0.8337925
0.8338126
0.8335402
0.8335602
0.8327395
0.8327591
0.8327463
0.8327659
0.8335611
0.8335811
0.8338
0.8338201
0.8337965
0.8338166
0.8335509
0.8335709
0.8327431
0.8327627
0.8327441
0.8327638
0.8335516
0.8335715
0.833797
0.8338171
0.8337971
0.8338172
0.8335517
0.8335717
0.8327443
0.8327639
0.832743
0.8327626
0.833551
0.833571
0.8337966
0.8338167
0.8338
0.8338202
0.8335612
0.8335812
0.8327463
0.8327659
0.8327393
0.8327589
0.83354
0.83356
0.8337923
0.8338125
0.8337988
0.833819
0.8335617
0.8335818
0.8327438
0.8327635
0.8327323
0.832752
0.8335327
0.8335527
0.8337881
0.8338083
0.8337788
0.8337989
0.8334355
0.8334554
0.8322443
0.8322638
0.8315736
0.8315929
0.8312992
0.8313185
0.8320201
0.8320395
0.8333317
0.8333516
0.8337149
0.833735
0.8337294
0.8337495
0.8334534
0.8334733
0.8325933
0.8326128
0.8326045
0.832624
0.8334861
0.833506
0.8337432
0.8337632
0.8337362
0.8337562
0.8334615
0.8334814
0.8325996
0.8326191
0.8326062
0.8326258
0.8334849
0.8335049
0.8337435
0.8337636
0.83374
0.8337601
0.833474
0.833494
0.8326015
0.8326211
0.8326017
0.8326213
0.8334714
0.8334914
0.8337384
0.8337586
0.8337385
0.8337586
0.8334715
0.8334915
0.8326018
0.8326215
0.8326013
0.8326209
0.833473
0.833493
0.8337391
0.8337592
0.8337436
0.8337637
0.8334851
0.833505
0.8326062
0.8326258
0.8325988
0.8326184
0.8334608
0.8334808
0.833736
0.8337561
0.8337433
0.8337634
0.8334864
0.8335064
0.8326048
0.8326244
0.8325933
0.8326129
0.8334533
0.8334732
0.8337297
0.8337498
0.8337156
0.8337356
0.8333335
0.8333533
0.832023
0.8320423
0.8313018
0.8313211
0.8310397
0.8310589
0.8318147
0.8318341
0.833238
0.8332579
0.8336563
0.8336764
0.8336745
0.8336946
0.8333808
0.8334007
0.8324652
0.8324848
0.8324762
0.8324958
0.8334131
0.833433
0.8336899
0.83371
0.8336827
0.8337028
0.8333882
0.8334082
0.8324714
0.832491
0.8324787
0.8324983
0.8334143
0.8334342
0.833692
0.8337121
0.8336885
0.8337086
0.8334022
0.8334221
0.8324762
0.8324957
0.8324769
0.8324964
0.8334031
0.833423
0.8336881
0.8337081
0.8336881
0.8337082
0.8334032
0.8334231
0.832477
0.8324966
0.8324765
0.832496
0.8334022
0.8334221
0.8336886
0.8337087
0.8336924
0.8337124
0.8334143
0.8334342
0.8324799
0.8324994
0.8324723
0.8324918
0.8333889
0.8334088
0.8336835
0.8337035
0.8336896
0.8337097
0.833413
0.833433
0.8324758
0.8324954
0.8324645
0.8324841
0.83338
0.8333999
0.8336733
0.8336935
0.8336545
0.8336747
0.8332369
0.8332568
0.8318138
0.8318332
0.8310383
0.8310576
0.83079
0.8308093
0.8316211
0.8316406
0.8331493
0.8331693
0.8335997
0.8336199
0.8336233
0.8336435
0.8333152
0.8333352
0.8323498
0.8323694
0.8323601
0.8323797
0.8333444
0.8333644
0.8336403
0.8336604
0.8336351
0.8336552
0.8333244
0.8333443
0.8323581
0.8323777
0.8323649
0.8323844
0.8333456
0.8333655
0.8336435
0.8336635
0.83364
0.83366
0.8333328
0.8333526
0.8323626
0.8323821
0.832365
0.8323845
0.8333404
0.8333603
0.8336409
0.833661
0.833641
0.833661
0.8333406
0.8333604
0.8323651
0.8323846
0.8323621
0.8323817
0.8333322
0.8333522
0.8336396
0.8336596
0.8336433
0.8336633
0.8333457
0.8333656
0.8323644
0.8323839
0.8323573
0.8323769
0.8333238
0.8333437
0.8336346
0.8336547
0.8336409
0.833661
0.8333454
0.8333653
0.8323611
0.8323807
0.8323505
0.8323701
0.8333157
0.8333356
0.8336248
0.8336449
0.8336022
0.8336222
0.8331526
0.8331724
0.8316258
0.8316451
0.8307948
0.830814
0.8305624
0.8305816
0.8314468
0.8314661
0.8330694
0.8330891
0.8335511
0.8335711
0.8335799
0.8335999
0.8332575
0.8332774
0.8322498
0.8322693
0.8322591
0.8322785
0.833283
0.8333029
0.8335966
0.8336166
0.8335921
0.8336121
0.8332693
0.8332892
0.8322579
0.8322774
0.8322619
0.8322814
0.8332781
0.833298
0.8335966
0.8336166
0.8335931
0.8336131
0.8332669
0.8332868
0.8322585
0.832278
0.8322619
0.8322814
0.8332796
0.8332995
0.8335954
0.8336155
0.8335955
0.8336156
0.8332798
0.8332997
0.832262
0.8322816
0.8322583
0.8322779
0.8332675
0.8332873
0.8335937
0.8336138
0.8335966
0.8336166
0.8332782
0.8332981
0.8322619
0.8322814
0.8322581
0.8322776
0.8332694
0.8332893
0.833592
0.833612
0.8335968
0.8336168
0.8332835
0.8333034
0.8322597
0.8322792
0.8322501
0.8322695
0.8332577
0.8332775
0.8335804
0.8336004
0.8335521
0.8335721
0.8330706
0.8330904
0.8314492
0.8314685
0.8305656
0.8305847
0.8303482
0.8303673
0.8312815
0.8313008
0.8329897
0.8330095
0.833502
0.8335221
0.8335359
0.8335559
0.8332003
0.8332202
0.8321568
0.8321763
0.8321653
0.8321848
0.8332246
0.8332445
0.8335536
0.8335737
0.8335504
0.8335704
0.8332174
0.8332373
0.8321756
0.832195
0.8321696
0.8321891
0.833213
0.8332329
0.8335518
0.8335718
0.8335508
0.8335708
0.8332108
0.8332306
0.8321672
0.8321867
0.8321705
0.83219
0.8332222
0.833242
0.8335537
0.8335737
0.8335538
0.8335738
0.8332224
0.8332422
0.8321707
0.8321901
0.8321671
0.8321865
0.8332107
0.8332306
0.8335509
0.8335709
0.8335519
0.8335719
0.8332131
0.833233
0.8321697
0.8321892
0.8321754
0.8321949
0.8332173
0.8332372
0.8335503
0.8335703
0.8335538
0.8335738
0.8332249
0.8332448
0.8321658
0.8321853
0.832157
0.8321765
0.8332005
0.8332204
0.8335363
0.8335563
0.833503
0.833523
0.8329912
0.833011
0.8312842
0.8313034
0.8303511
0.8303702
0.8301472
0.8301663
0.8311238
0.831143
0.8329109
0.8329306
0.8334558
0.8334757
0.8334955
0.8335154
0.8331483
0.8331681
0.832075
0.8320945
0.8320827
0.8321022
0.8331706
0.8331904
0.8335145
0.8335344
0.8335129
0.8335328
0.8331706
0.8331904
0.8321042
0.8321237
0.8320869
0.8321063
0.8331508
0.8331706
0.8335087
0.8335287
0.8335102
0.8335302
0.8331581
0.8331779
0.8320821
0.8321016
0.8320848
0.8321043
0.8331654
0.8331852
0.8335119
0.8335319
0.833512
0.833532
0.8331656
0.8331854
0.832085
0.8321044
0.8320819
0.8321014
0.8331571
0.833177
0.8335093
0.8335293
0.8335087
0.8335287
0.8331509
0.8331707
0.832087
0.8321064
0.8321036
0.8321231
0.83317
0.8331898
0.8335128
0.8335327
0.8335146
0.8335345
0.8331709
0.8331907
0.8320831
0.8321026
0.8320752
0.8320946
0.8331485
0.8331683
0.8334958
0.8335157
0.8334566
0.8334766
0.8329129
0.8329326
0.8311269
0.8311461
0.83015
0.8301691
0.8299585
0.8299775
0.8309772
0.8309964
0.8328381
0.8328579
0.8334108
0.8334307
0.8334558
0.8334758
0.8331016
0.8331215
0.8319988
0.8320183
0.8320047
0.8320241
0.8331158
0.8331356
0.8334748
0.8334948
0.8334752
0.8334952
0.8331242
0.8331441
0.8320365
0.8320559
0.8320112
0.8320306
0.8330954
0.8331152
0.8334685
0.8334884
0.8334722
0.8334921
0.8331113
0.8331311
0.8320073
0.8320267
0.8320093
0.8320287
0.8331142
0.833134
0.8334742
0.8334942
0.8334743
0.8334943
0.8331144
0.8331342
0.8320094
0.8320288
0.8320075
0.8320269
0.8331112
0.833131
0.8334722
0.8334921
0.8334688
0.8334888
0.8330954
0.8331152
0.8320122
0.8320317
0.8320372
0.8320567
0.8331247
0.8331445
0.8334758
0.8334958
0.8334743
0.8334943
0.8331154
0.8331352
0.8320041
0.8320236
0.831998
0.8320175
0.8331009
0.8331208
0.8334545
0.8334745
0.8334092
0.8334292
0.8328372
0.832857
0.8309765
0.8309958
0.8299574
0.8299765
0.8297751
0.8297943
0.8308278
0.830847
0.8327538
0.8327736
0.8333616
0.8333816
0.8334155
0.8334356
0.8330568
0.8330766
0.8319319
0.8319514
0.8319315
0.831951
0.8330555
0.8330754
0.8334336
0.8334536
0.833439
0.8334589
0.8330793
0.8330991
0.8319668
0.8319862
0.8319414
0.8319608
0.8330408
0.8330606
0.833429
0.833449
0.8334351
0.833455
0.8330649
0.8330846
0.831938
0.8319574
0.8319377
0.8319571
0.8330588
0.8330786
0.8334349
0.8334548
0.833435
0.8334549
0.8330591
0.8330789
0.8319379
0.8319573
0.8319375
0.8319569
0.8330642
0.833084
0.8334346
0.8334546
0.8334289
0.8334488
0.833041
0.8330608
0.8319411
0.8319605
0.8319663
0.8319857
0.8330787
0.8330985
0.8334385
0.8334585
0.8334344
0.8334544
0.8330567
0.8330765
0.8319327
0.8319522
0.8319327
0.8319522
0.8330575
0.8330773
0.8334171
0.833437
0.8333643
0.8333842
0.8327574
0.8327771
0.8308328
0.830852
0.8297804
0.8297994
0.8296064
0.8296254
0.8306911
0.8307102
0.8326763
0.832696
0.8333182
0.8333381
0.8333812
0.8334012
0.8330185
0.8330383
0.8318817
0.8319011
0.8318685
0.8318879
0.8329997
0.8330194
0.833396
0.8334159
0.8334042
0.8334242
0.8330364
0.8330562
0.8319035
0.8319229
0.8318766
0.831896
0.832991
0.8330108
0.8333912
0.8334111
0.8333985
0.8334185
0.8330208
0.8330406
0.8318736
0.831893
0.8318697
0.8318891
0.8330047
0.8330245
0.8333955
0.8334154
0.8333956
0.8334156
0.833005
0.8330249
0.8318698
0.8318893
0.8318733
0.8318927
0.8330212
0.833041
0.8333991
0.833419
0.8333912
0.8334112
0.8329911
0.8330109
0.8318768
0.8318962
0.831904
0.8319234
0.8330365
0.8330563
0.8334042
0.8334241
0.8333963
0.8334162
0.8330004
0.8330201
0.8318691
0.8318885
0.8318819
0.8319013
0.8330187
0.8330385
0.8333818
0.8334017
0.8333194
0.8333393
0.8326781
0.8326977
0.830694
0.8307132
0.8296099
0.8296289
0.8294369
0.8294558
0.8305357
0.8305548
0.832562
0.8325817
0.8332621
0.8332821
0.8333411
0.833361
0.8329738
0.8329935
0.8318195
0.831839
0.8318016
0.831821
0.8329259
0.8329457
0.833351
0.8333709
0.8333649
0.8333849
0.8329809
0.8330007
0.8318338
0.8318532
0.8318108
0.8318302
0.8329287
0.8329485
0.8333494
0.8333693
0.8333599
0.8333798
0.8329665
0.8329863
0.8318111
0.8318305
0.8318048
0.8318242
0.8329404
0.8329601
0.8333537
0.8333736
0.8333539
0.8333738
0.8329407
0.8329605
0.831805
0.8318243
0.8318109
0.8318302
0.8329664
0.8329861
0.8333599
0.8333799
0.8333495
0.8333694
0.8329288
0.8329486
0.8318111
0.8318305
0.8318339
0.8318533
0.8329808
0.8330006
0.8333649
0.8333848
0.8333513
0.8333712
0.8329265
0.8329463
0.8318021
0.8318215
0.8318196
0.831839
0.8329738
0.8329936
0.8333415
0.8333615
0.8332632
0.8332831
0.8325639
0.8325835
0.8305388
0.830558
0.8294403
0.8294592
0.8292522
0.8292711
0.8303381
0.8303572
0.8323849
0.8324045
0.8331903
0.8332101
0.8332954
0.8333152
0.8329111
0.8329309
0.8317524
0.8317717
0.8317302
0.8317496
0.8328328
0.8328525
0.8333002
0.8333201
0.8333206
0.8333405
0.8329057
0.8329254
0.831761
0.8317803
0.8317392
0.8317585
0.8328463
0.832866
0.8333012
0.8333211
0.833314
0.8333339
0.8328882
0.8329079
0.8317405
0.8317599
0.8317324
0.8317518
0.8328572
0.8328769
0.8333045
0.8333244
0.8333046
0.8333245
0.8328575
0.8328773
0.8317325
0.8317519
0.8317402
0.8317596
0.8328871
0.8329068
0.8333131
0.8333331
0.8333012
0.8333211
0.8328464
0.8328661
0.8317394
0.8317587
0.8317606
0.83178
0.8329053
0.832925
0.8333205
0.8333404
0.8333005
0.8333203
0.8328333
0.832853
0.8317306
0.83175
0.8317524
0.8317717
0.8329111
0.8329309
0.8332957
0.8333156
0.8331913
0.8332112
0.8323872
0.8324067
0.8303415
0.8303606
0.8292554
0.8292743
0.8290314
0.8290503
0.8301034
0.8301225
0.8321826
0.8322022
0.8331021
0.8331219
0.8332391
0.833259
0.8328292
0.832849
0.8316699
0.8316893
0.831642
0.8316614
0.8327259
0.8327456
0.8332394
0.8332593
0.8332664
0.8332863
0.8328143
0.832834
0.831674
0.8316934
0.8316525
0.8316719
0.8327497
0.8327694
0.833245
0.8332649
0.8332599
0.8332797
0.8327947
0.8328144
0.8316582
0.8316776
0.8316495
0.8316688
0.8327639
0.8327836
0.8332498
0.8332697
0.83325
0.8332698
0.8327642
0.8327839
0.8316497
0.831669
0.8316583
0.8316777
0.8327946
0.8328143
0.8332599
0.8332797
0.8332454
0.8332652
0.8327498
0.8327695
0.8316535
0.8316729
0.8316747
0.8316941
0.8328148
0.8328345
0.8332669
0.8332868
0.8332388
0.8332587
0.8327255
0.8327452
0.8316412
0.8316606
0.8316687
0.8316881
0.8328282
0.832848
0.8332377
0.8332577
0.8331006
0.8331205
0.8321818
0.8322014
0.8301026
0.8301218
0.8290302
0.8290492
0.8286874
0.8287064
0.8296301
0.8296492
0.8316064
0.8316259
0.8329335
0.8329534
0.8331193
0.8331392
0.8325954
0.8326151
0.8315278
0.8315472
0.8314886
0.831508
0.8324497
0.8324693
0.8331239
0.8331438
0.8331562
0.833176
0.8325637
0.8325833
0.8315267
0.831546
0.8315037
0.831523
0.8324926
0.8325122
0.8331341
0.8331539
0.8331495
0.8331693
0.8325396
0.8325592
0.8315118
0.8315311
0.8315021
0.8315215
0.8325094
0.832529
0.8331391
0.8331589
0.8331393
0.8331591
0.8325096
0.8325292
0.8315023
0.8315217
0.8315113
0.8315306
0.832539
0.8325586
0.8331491
0.8331689
0.833134
0.8331538
0.832493
0.8325126
0.8315034
0.8315228
0.8315261
0.8315454
0.832563
0.8325827
0.8331557
0.8331756
0.8331249
0.8331448
0.8324511
0.8324707
0.8314901
0.8315095
0.831529
0.8315484
0.8325963
0.832616
0.8331211
0.833141
0.8329367
0.8329564
0.8316111
0.8316304
0.8296363
0.8296553
0.8286937
0.8287126
0.8281216
0.8281404
0.8289137
0.8289326
0.8307161
0.8307353
0.8325492
0.8325689
0.8328256
0.8328453
0.8321608
0.8321803
0.831234
0.8312533
0.831185
0.8312043
0.8320029
0.8320224
0.8328375
0.8328572
0.8328748
0.8328945
0.8321217
0.8321412
0.8312236
0.8312428
0.8312005
0.8312197
0.8320566
0.832076
0.8328508
0.8328705
0.8328659
0.8328856
0.8320964
0.832116
0.8312068
0.8312261
0.8311979
0.8312172
0.8320725
0.832092
0.8328553
0.8328751
0.8328554
0.8328752
0.8320727
0.8320923
0.8311981
0.8312174
0.8312067
0.831226
0.8320971
0.8321166
0.8328666
0.8328864
0.832851
0.8328707
0.832057
0.8320765
0.8312008
0.83122
0.8312239
0.8312432
0.8321218
0.8321413
0.8328747
0.8328944
0.8328379
0.8328576
0.8320037
0.8320232
0.8311859
0.8312051
0.8312346
0.8312538
0.8321612
0.8321807
0.8328265
0.8328462
0.832551
0.8325707
0.8307192
0.8307384
0.8289176
0.8289365
0.828126
0.8281448
0.8329016
0.8329551
0.8330063
0.8330547
0.8331002
0.8331425
0.8331814
0.8332167
0.8332485
0.8332767
0.8333014
0.8333228
0.8333409
0.833356
0.8333683
0.833378
0.8333854
0.8333906
0.833394
0.8333957
0.8338349
0.8338913
0.833946
0.8339984
0.8340474
0.8340927
0.8341337
0.8341701
0.8342018
0.8342287
0.8342509
0.8342687
0.8342823
0.8342923
0.8342991
0.8343033
0.8343054
0.8343061
0.834306
0.8343056
0.8344304
0.8344893
0.8345484
0.8346067
0.8346632
0.8347168
0.8347664
0.8348111
0.8348502
0.8348835
0.8349111
0.8349332
0.8349506
0.8349639
0.8349739
0.8349815
0.8349871
0.8349914
0.8349947
0.8349974
0.8344867
0.8345451
0.8346029
0.8346593
0.8347133
0.8347639
0.8348102
0.8348512
0.8348865
0.8349159
0.8349395
0.8349579
0.8349718
0.8349818
0.8349889
0.8349937
0.8349968
0.8349988
0.8350001
0.8350009
0.8344799
0.8345382
0.8345959
0.8346523
0.8347064
0.8347573
0.8348039
0.8348454
0.8348813
0.8349114
0.8349359
0.834955
0.8349695
0.8349802
0.8349877
0.8349929
0.8349963
0.8349985
0.8349999
0.8350007
0.8344352
0.8344939
0.8345527
0.8346106
0.8346668
0.8347201
0.8347695
0.834814
0.834853
0.8348862
0.8349136
0.8349356
0.8349528
0.834966
0.8349758
0.8349831
0.8349885
0.8349925
0.8349955
0.8349979
0.833943
0.8339984
0.8340516
0.8341022
0.8341498
0.834194
0.8342344
0.834271
0.8343036
0.8343322
0.8343568
0.8343777
0.8343949
0.8344088
0.8344197
0.8344279
0.8344337
0.8344375
0.8344397
0.8344406
0.8339744
0.8340299
0.8340834
0.8341344
0.8341822
0.8342267
0.8342674
0.8343041
0.8343368
0.8343655
0.8343901
0.8344108
0.8344279
0.8344416
0.8344521
0.83446
0.8344655
0.834469
0.834471
0.8344718
0.8344395
0.8344982
0.8345568
0.8346146
0.8346706
0.8347237
0.8347728
0.8348169
0.8348556
0.8348885
0.8349156
0.8349373
0.8349542
0.8349671
0.8349767
0.8349838
0.8349891
0.8349929
0.8349959
0.8349981
0.8344817
0.8345399
0.8345975
0.8346538
0.8347078
0.8347585
0.834805
0.8348464
0.8348822
0.8349122
0.8349365
0.8349555
0.8349699
0.8349805
0.8349879
0.834993
0.8349964
0.8349986
0.8349999
0.8350008
0.8344822
0.8345402
0.8345976
0.8346537
0.8347076
0.8347582
0.8348046
0.8348459
0.8348817
0.8349118
0.8349361
0.8349552
0.8349697
0.8349803
0.8349878
0.8349929
0.8349963
0.8349985
0.8349999
0.8350007
0.8344394
0.8344979
0.8345564
0.8346141
0.8346699
0.8347229
0.834772
0.8348162
0.8348549
0.8348878
0.8349149
0.8349367
0.8349537
0.8349667
0.8349764
0.8349836
0.8349889
0.8349928
0.8349957
0.834998
0.8339665
0.8340218
0.834075
0.8341256
0.8341732
0.8342174
0.8342579
0.8342945
0.8343271
0.8343557
0.8343803
0.834401
0.8344182
0.8344319
0.8344427
0.8344507
0.8344563
0.83446
0.834462
0.8344629
0.8339712
0.8340264
0.8340797
0.8341304
0.834178
0.8342222
0.8342627
0.8342994
0.834332
0.8343605
0.8343851
0.8344059
0.834423
0.8344367
0.8344474
0.8344553
0.8344609
0.8344645
0.8344666
0.8344674
0.83444
0.8344985
0.834557
0.8346146
0.8346705
0.8347234
0.8347724
0.8348166
0.8348552
0.8348881
0.8349152
0.8349369
0.8349539
0.8349669
0.8349765
0.8349837
0.8349889
0.8349928
0.8349958
0.8349981
0.8344829
0.8345408
0.8345982
0.8346542
0.834708
0.8347586
0.8348049
0.8348462
0.834882
0.8349119
0.8349362
0.8349553
0.8349697
0.8349803
0.8349878
0.834993
0.8349964
0.8349986
0.8349999
0.8350008
0.8344827
0.8345406
0.834598
0.834654
0.8347078
0.8347584
0.8348047
0.834846
0.8348818
0.8349118
0.8349361
0.8349552
0.8349697
0.8349803
0.8349878
0.8349929
0.8349963
0.8349985
0.8349999
0.8350007
0.8344402
0.8344986
0.834557
0.8346146
0.8346704
0.8347233
0.8347723
0.8348164
0.8348551
0.834888
0.8349151
0.8349368
0.8349538
0.8349668
0.8349765
0.8349836
0.8349889
0.8349928
0.8349958
0.834998
0.8339698
0.834025
0.8340782
0.8341288
0.8341764
0.8342205
0.834261
0.8342976
0.8343301
0.8343587
0.8343833
0.834404
0.8344211
0.8344349
0.8344456
0.8344535
0.8344592
0.8344628
0.8344649
0.8344657
0.8339715
0.8340267
0.8340799
0.8341305
0.8341781
0.8342223
0.8342627
0.8342993
0.8343319
0.8343604
0.834385
0.8344057
0.8344228
0.8344366
0.8344472
0.8344552
0.8344608
0.8344644
0.8344665
0.8344673
0.8344405
0.8344989
0.8345573
0.8346149
0.8346707
0.8347236
0.8347725
0.8348166
0.8348553
0.8348881
0.8349152
0.8349369
0.8349539
0.8349669
0.8349765
0.8349837
0.8349889
0.8349928
0.8349958
0.8349981
0.8344829
0.8345408
0.8345981
0.8346542
0.834708
0.8347585
0.8348048
0.8348462
0.8348819
0.8349119
0.8349362
0.8349553
0.8349697
0.8349803
0.8349878
0.8349929
0.8349964
0.8349985
0.8349999
0.8350008
0.8344829
0.8345408
0.8345981
0.8346542
0.834708
0.8347585
0.8348048
0.8348462
0.8348819
0.8349119
0.8349362
0.8349553
0.8349697
0.8349803
0.8349878
0.8349929
0.8349964
0.8349985
0.8349999
0.8350008
0.8344405
0.8344989
0.8345573
0.8346149
0.8346707
0.8347236
0.8347725
0.8348166
0.8348553
0.8348881
0.8349152
0.8349369
0.8349539
0.8349669
0.8349765
0.8349837
0.8349889
0.8349928
0.8349958
0.8349981
0.8339715
0.8340267
0.8340799
0.8341305
0.834178
0.8342222
0.8342627
0.8342993
0.8343318
0.8343604
0.8343849
0.8344057
0.8344228
0.8344365
0.8344472
0.8344551
0.8344607
0.8344644
0.8344664
0.8344673
0.833969
0.8340243
0.8340775
0.8341281
0.8341757
0.8342199
0.8342604
0.834297
0.8343296
0.8343582
0.8343828
0.8344036
0.8344207
0.8344345
0.8344452
0.8344532
0.8344588
0.8344624
0.8344645
0.8344654
0.8344397
0.8344982
0.8345566
0.8346143
0.8346701
0.8347231
0.8347721
0.8348163
0.834855
0.8348879
0.834915
0.8349368
0.8349538
0.8349668
0.8349765
0.8349836
0.8349889
0.8349928
0.8349958
0.834998
0.8344822
0.8345402
0.8345976
0.8346537
0.8347076
0.8347582
0.8348046
0.8348459
0.8348817
0.8349117
0.8349361
0.8349552
0.8349696
0.8349803
0.8349878
0.8349929
0.8349963
0.8349985
0.8349999
0.8350007
0.8344825
0.8345405
0.8345979
0.8346539
0.8347078
0.8347584
0.8348048
0.8348461
0.8348819
0.8349119
0.8349362
0.8349553
0.8349697
0.8349803
0.8349878
0.8349929
0.8349964
0.8349985
0.8349999
0.8350008
0.83444
0.8344985
0.8345569
0.8346146
0.8346704
0.8347233
0.8347723
0.8348165
0.8348552
0.834888
0.8349151
0.8349369
0.8349539
0.8349668
0.8349765
0.8349837
0.8349889
0.8349928
0.8349958
0.8349981
0.8339694
0.8340248
0.8340782
0.8341289
0.8341767
0.834221
0.8342615
0.8342982
0.8343309
0.8343595
0.8343841
0.8344049
0.8344221
0.8344358
0.8344465
0.8344545
0.8344601
0.8344637
0.8344657
0.8344666
0.8339644
0.8340197
0.8340731
0.8341238
0.8341715
0.8342158
0.8342564
0.834293
0.8343257
0.8343544
0.834379
0.8343998
0.834417
0.8344308
0.8344416
0.8344496
0.8344552
0.8344589
0.834461
0.8344619
0.8344382
0.8344968
0.8345554
0.8346132
0.8346692
0.8347223
0.8347715
0.8348158
0.8348545
0.8348875
0.8349147
0.8349366
0.8349536
0.8349666
0.8349764
0.8349836
0.8349888
0.8349928
0.8349957
0.834998
0.8344811
0.8345393
0.8345968
0.834653
0.834707
0.8347577
0.8348042
0.8348456
0.8348815
0.8349116
0.834936
0.8349551
0.8349696
0.8349802
0.8349878
0.8349929
0.8349963
0.8349985
0.8349999
0.8350007
0.8344822
0.8345403
0.8345979
0.8346541
0.834708
0.8347587
0.8348051
0.8348465
0.8348823
0.8349122
0.8349365
0.8349555
0.8349699
0.8349805
0.8349879
0.834993
0.8349964
0.8349986
0.8349999
0.8350008
0.8344402
0.8344988
0.8345574
0.8346151
0.834671
0.834724
0.834773
0.8348172
0.8348558
0.8348886
0.8349157
0.8349374
0.8349543
0.8349671
0.8349768
0.8349839
0.8349891
0.834993
0.8349959
0.8349981
0.8339757
0.8340312
0.8340846
0.8341355
0.8341833
0.8342277
0.8342683
0.834305
0.8343377
0.8343663
0.8343909
0.8344116
0.8344286
0.8344423
0.8344529
0.8344607
0.8344662
0.8344697
0.8344717
0.8344725
0.8339442
0.8339994
0.8340526
0.8341032
0.8341507
0.8341948
0.8342352
0.8342717
0.8343043
0.8343329
0.8343575
0.8343783
0.8343955
0.8344094
0.8344203
0.8344284
0.8344342
0.834438
0.8344402
0.8344412
0.834436
0.8344946
0.8345532
0.8346111
0.8346672
0.8347205
0.8347698
0.8348143
0.8348532
0.8348864
0.8349137
0.8349357
0.8349529
0.834966
0.8349759
0.8349831
0.8349885
0.8349925
0.8349955
0.8349979
0.8344816
0.8345397
0.8345972
0.8346534
0.8347074
0.834758
0.8348045
0.8348459
0.8348817
0.8349117
0.8349361
0.8349552
0.8349696
0.8349802
0.8349877
0.8349929
0.8349963
0.8349985
0.8349999
0.8350007
0.8344896
0.8345477
0.8346051
0.8346612
0.8347149
0.8347653
0.8348112
0.834852
0.8348871
0.8349163
0.8349399
0.8349582
0.8349719
0.8349819
0.8349889
0.8349937
0.8349969
0.8349989
0.8350001
0.8350009
0.8344339
0.8344924
0.8345511
0.834609
0.8346652
0.8347185
0.8347678
0.8348122
0.8348511
0.8348842
0.8349116
0.8349336
0.8349509
0.8349641
0.8349741
0.8349816
0.8349872
0.8349915
0.8349948
0.8349974
0.8338421
0.8338981
0.8339525
0.8340045
0.8340532
0.8340982
0.834139
0.8341752
0.8342066
0.8342334
0.8342554
0.8342731
0.8342866
0.8342966
0.8343033
0.8343075
0.8343096
0.8343103
0.8343101
0.8343098
0.8329145
0.8329676
0.8330184
0.8330666
0.8331118
0.8331538
0.8331924
0.8332275
0.8332591
0.8332871
0.8333116
0.8333328
0.8333508
0.8333658
0.833378
0.8333877
0.833395
0.8334003
0.8334036
0.8334053
0.8331957
0.8332499
0.8333023
0.8333525
0.8334002
0.833445
0.8334867
0.8335249
0.8335595
0.8335905
0.8336178
0.8336413
0.8336613
0.8336777
0.8336909
0.8337009
0.8337082
0.8337131
0.8337159
0.8337171
0.8338321
0.8338881
0.8339432
0.8339965
0.8340475
0.8340957
0.8341406
0.8341818
0.8342192
0.8342525
0.8342816
0.8343066
0.8343276
0.8343447
0.8343583
0.8343685
0.8343758
0.8343806
0.8343833
0.8343844
0.8343149
0.8343727
0.8344301
0.8344865
0.8345413
0.8345939
0.8346436
0.8346899
0.8347325
0.834771
0.8348055
0.8348359
0.8348623
0.8348853
0.8349049
0.8349219
0.8349364
0.8349492
0.8349604
0.8349707
0.8343749
0.8344322
0.8344887
0.8345438
0.8345969
0.8346474
0.8346948
0.8347386
0.8347785
0.8348143
0.8348459
0.8348734
0.834897
0.8349171
0.8349339
0.8349479
0.8349595
0.8349691
0.8349771
0.8349838
0.8343661
0.8344234
0.8344799
0.8345349
0.834588
0.8346385
0.834686
0.8347301
0.8347703
0.8348065
0.8348386
0.8348667
0.834891
0.8349116
0.8349291
0.8349437
0.8349559
0.8349661
0.8349746
0.8349819
0.8343022
0.8343599
0.8344172
0.8344735
0.8345282
0.8345806
0.8346304
0.8346768
0.8347197
0.8347586
0.8347936
0.8348246
0.8348518
0.8348755
0.8348961
0.8349138
0.8349293
0.8349429
0.8349552
0.8349665
0.833827
0.833882
0.8339354
0.8339866
0.8340354
0.8340813
0.834124