/*--------------------------------*- C++ -*----------------------------------*\
| =========                 |                                                 |
| \\      /  F ield         | OpenFOAM: The Open Source CFD Toolbox           |
|  \\    /   O peration     | Version:  4.0                                   |
|   \\  /    A nd           | Web:      www.OpenFOAM.org                      |
|    \\/     M anipulation  |                                                 |
\*---------------------------------------------------------------------------*/
FoamFile
{
    version     2.0;
    format      ascii;
    class       volScalarField;
    location    "120/fuel";
    object      XCO2fuel;
}
// * * * * * * * * * * * * * * * * * * * * * * * * * * * * * * * * * * * * * //

dimensions      [0 0 0 0 0 0 0];

internalField   nonuniform List<scalar> 
39776
(
0.002157653
0.002137865
0.001225654
0.00120541
0.0006317613
0.0006109829
0.0005756478
0.0005547997
0.0005824178
0.0005615816
0.0006267804
0.0006060484
0.001117574
0.001097323
0.001086249
0.001065973
0.0006225101
0.0006017723
0.0005805038
0.0005597101
0.0005798059
0.0005590837
0.0006224076
0.0006017426
0.001093932
0.001073734
0.001089292
0.001069089
0.0006218231
0.000601156
0.0005790132
0.0005583149
0.0005792158
0.000558518
0.0006215521
0.0006009113
0.001090535
0.001070359
0.001088873
0.001068694
0.0006212989
0.0006006576
0.0005790599
0.0005583627
0.0005790512
0.0005583543
0.0006212703
0.0006006303
0.0010889
0.001068724
0.001091396
0.001071201
0.0006221115
0.0006014508
0.0005797214
0.0005590047
0.0005794959
0.0005587792
0.00062181
0.0006011504
0.001091185
0.001070939
0.001096211
0.001075967
0.0006237622
0.0006030507
0.0005809826
0.0005602147
0.0005799069
0.0005591379
0.0006217287
0.0006010175
0.001084859
0.00106461
0.00111636
0.001096132
0.0006259869
0.0006052797
0.000580534
0.0005597674
0.0005723664
0.0005516425
0.0006279286
0.0006072792
0.001218102
0.00119799
0.002144391
0.002124736
0.001863482
0.001843713
0.001228042
0.001207956
0.0007463698
0.000725882
0.0006866106
0.0006660595
0.0006953296
0.00067479
0.0007590521
0.0007385819
0.001233094
0.001213022
0.001194094
0.001173995
0.0007512125
0.0007307326
0.0006943998
0.0006738589
0.0006952566
0.0006747174
0.0007552184
0.0007347239
0.001212839
0.001192733
0.001205016
0.001184903
0.000753729
0.0007332307
0.0006953067
0.000674746
0.0006967285
0.0006761175
0.0007557729
0.0007352264
0.00121141
0.001191251
0.001208706
0.001188544
0.0007552777
0.0007347284
0.0006966219
0.0006760101
0.0006966018
0.0006759907
0.0007552186
0.0007346717
0.001208692
0.001188531
0.00121153
0.00119137
0.0007547935
0.0007342964
0.0006957095
0.0006751494
0.0006953887
0.000674829
0.0007537503
0.0007332545
0.001205495
0.001185385
0.001212972
0.001192886
0.0007552485
0.0007347728
0.0006955868
0.0006750476
0.0006942199
0.00067368
0.0007508807
0.0007304031
0.001193522
0.001173424
0.001232642
0.001212569
0.000758759
0.0007382875
0.0006947087
0.0006741696
0.0006855478
0.0006649992
0.0007453224
0.0007248203
0.00122578
0.00120568
0.001859105
0.001839339
0.002043638
0.002023945
0.001426011
0.001406025
0.0008739613
0.00085353
0.0007887388
0.0007682312
0.0007997322
0.0007792379
0.0008922127
0.0008718039
0.001402369
0.001382331
0.001364556
0.001344493
0.0008807938
0.0008603722
0.0007979912
0.0007774945
0.0007994606
0.0007789664
0.0008867904
0.0008663769
0.001383571
0.001363572
0.001371842
0.001351835
0.0008824195
0.0008620511
0.0007977165
0.0007772714
0.000798467
0.0007780238
0.0008842448
0.0008639013
0.001379121
0.00135914
0.001375277
0.001355291
0.0008832516
0.000862904
0.0007978404
0.0007774158
0.0007978065
0.000777383
0.0008831668
0.0008628223
0.001375251
0.001355268
0.001379213
0.00135923
0.0008841008
0.000863754
0.0007982613
0.0007778167
0.0007977349
0.000777291
0.0008824113
0.0008620459
0.001372151
0.001352146
0.001384
0.001364
0.0008870533
0.0008666369
0.0007996789
0.0007791837
0.000797873
0.0007773772
0.0008805212
0.0008601025
0.001364106
0.001344045
0.001402037
0.001381997
0.0008920382
0.0008716267
0.0007993354
0.0007788408
0.000788013
0.0007675086
0.0008729113
0.0008524871
0.00142379
0.001403812
0.002040174
0.002020484
0.002315274
0.00229568
0.00171186
0.00169202
0.001018545
0.0009982877
0.0008894422
0.0008691057
0.0008997283
0.0008794037
0.001034175
0.001013959
0.001588638
0.001568771
0.001560557
0.001540673
0.001014595
0.0009943603
0.0008961921
0.0008758639
0.0008989336
0.0008786092
0.00102685
0.001006628
0.001574271
0.001554397
0.001565622
0.001545721
0.001019184
0.0009989314
0.0008975221
0.0008771741
0.0008987945
0.0008784491
0.001024597
0.001004353
0.001573131
0.001553184
0.001570185
0.001550235
0.001022899
0.001002597
0.0008993536
0.0008789548
0.0008993077
0.0008789103
0.001022801
0.001002503
0.001570146
0.001550197
0.001573304
0.001553354
0.001025818
0.001005518
0.0008999188
0.0008795203
0.0008975561
0.0008772093
0.001019156
0.0009989072
0.001565883
0.001545984
0.001575289
0.001555392
0.001027641
0.001007395
0.000899135
0.0008788087
0.0008961047
0.0008757774
0.001014362
0.0009941304
0.001560175
0.001540293
0.001588407
0.001568538
0.001034056
0.001013836
0.000899435
0.0008791098
0.0008888307
0.0008684979
0.001017023
0.0009967933
0.001709066
0.001689254
0.002312186
0.002292592
0.002591789
0.002572283
0.001986374
0.001966652
0.001158062
0.001137905
0.0009818227
0.0009615448
0.0009905513
0.0009702318
0.001156568
0.001136369
0.001774671
0.001754821
0.001753907
0.001734045
0.001135864
0.001115647
0.000986094
0.0009657696
0.0009898655
0.0009695458
0.001150772
0.001130568
0.001763364
0.001743508
0.001755934
0.001736071
0.001137833
0.001117667
0.0009857975
0.0009655246
0.0009877967
0.0009675271
0.001146004
0.001125848
0.001759655
0.001739848
0.001756545
0.001736753
0.001140739
0.001120595
0.0009864616
0.0009662092
0.0009864078
0.0009661571
0.001140623
0.001120484
0.001756468
0.001736678
0.001759266
0.001739475
0.00114592
0.001125779
0.0009876582
0.0009674058
0.0009853588
0.0009651063
0.001137811
0.001117644
0.001754704
0.001734889
0.001762465
0.001742651
0.001150046
0.001129883
0.0009889817
0.0009687056
0.000986531
0.0009661845
0.001136247
0.00111601
0.001754346
0.001734462
0.0017753
0.001755424
0.001157186
0.001136959
0.000991965
0.0009715786
0.0009841095
0.0009637188
0.001159936
0.001139671
0.001987922
0.001968093
0.002593286
0.002573666
0.002873117
0.002853566
0.002263523
0.002243778
0.001314635
0.00129445
0.001073182
0.001052846
0.001074681
0.001054351
0.001273969
0.001253811
0.001950515
0.001930704
0.001935293
0.001915474
0.001256451
0.001236278
0.001068728
0.001048433
0.001072012
0.001051779
0.001270736
0.001250633
0.00194028
0.001920521
0.001933332
0.001913568
0.001253402
0.001233283
0.001066497
0.001046279
0.001069257
0.001049043
0.001263477
0.001243391
0.001936654
0.001916915
0.001934323
0.00191458
0.00125854
0.001238447
0.001067981
0.001047765
0.001067919
0.001047705
0.001258407
0.001238318
0.00193421
0.001914471
0.001937121
0.001917364
0.001264011
0.001243905
0.001069702
0.00104947
0.001066718
0.001046486
0.001253204
0.001233095
0.001934039
0.001914244
0.001941333
0.001921538
0.001271639
0.001251498
0.001072683
0.001052414
0.001068259
0.001047988
0.001255792
0.001235646
0.001934481
0.001914687
0.00194991
0.00193012
0.001273498
0.001253359
0.001073414
0.001053146
0.001070921
0.001050694
0.0013117
0.001291628
0.002259259
0.002239626
0.002868441
0.002848993
0.003152217
0.003132839
0.002518407
0.002498865
0.001446198
0.001426207
0.0011506
0.001130441
0.001146396
0.00112624
0.001375571
0.001355555
0.002114385
0.002094719
0.002102179
0.002082506
0.001353781
0.001333748
0.001138762
0.0011186
0.001144069
0.001123913
0.001372326
0.001352292
0.00210783
0.002088145
0.002100944
0.002081254
0.001352408
0.001332357
0.001138178
0.001117999
0.001142309
0.001122095
0.001364712
0.001344633
0.002105731
0.002086006
0.002103981
0.002084252
0.001361478
0.001341392
0.001141461
0.001121244
0.001141395
0.00112118
0.001361338
0.001341257
0.002103863
0.002084137
0.002105881
0.002086153
0.001363972
0.001343929
0.001141527
0.001121351
0.001138132
0.001117955
0.001352271
0.001332226
0.002101016
0.00208133
0.002107756
0.002088085
0.001372289
0.001352268
0.001144236
0.001124078
0.001138577
0.001118418
0.001353397
0.00133337
0.002101722
0.002082052
0.002114163
0.002094495
0.001375451
0.001355432
0.001145983
0.001125827
0.001149733
0.001129582
0.001445056
0.001425062
0.002516231
0.002496685
0.0031493
0.003129926
0.003430968
0.003411658
0.002759936
0.002740451
0.001567686
0.001547702
0.001223808
0.001203642
0.001214036
0.001193869
0.001469158
0.001449138
0.002269716
0.002250051
0.002258445
0.002238774
0.001440433
0.001420393
0.001203139
0.001182966
0.001209376
0.001189209
0.001461664
0.001441641
0.002262342
0.002242715
0.002255572
0.00223594
0.001440749
0.00142075
0.001201885
0.001181751
0.001205368
0.001185238
0.001450917
0.001430945
0.002258734
0.002239122
0.002257708
0.002238092
0.001450292
0.001430315
0.001204821
0.001184706
0.001204752
0.001184639
0.00145014
0.001430168
0.00225758
0.002237968
0.00225887
0.002239256
0.001450877
0.001430899
0.001205245
0.001185113
0.001201819
0.001181688
0.001440617
0.001420623
0.002255577
0.002235948
0.002262558
0.002242929
0.001461885
0.001441858
0.001209515
0.001189346
0.001203012
0.001182841
0.001440109
0.001420074
0.002258027
0.00223836
0.002269557
0.002249891
0.001469133
0.00144911
0.001213756
0.00119359
0.001223088
0.00120293
0.001566382
0.001546411
0.002757516
0.002738043
0.003428208
0.003408902
0.003702607
0.003683357
0.002981801
0.002962377
0.001670143
0.001650248
0.001286924
0.001266855
0.001272441
0.001252369
0.001548495
0.001528574
0.002408589
0.002389029
0.002397391
0.002377824
0.001515774
0.001495832
0.001258689
0.00123861
0.001265702
0.00124563
0.001540382
0.001520458
0.002402273
0.002382711
0.002395661
0.002376077
0.001516907
0.001496949
0.001258303
0.001238207
0.001261808
0.001241715
0.001527818
0.00150787
0.002400386
0.002380767
0.002400139
0.002380517
0.001530489
0.001510498
0.001263411
0.001243277
0.00126334
0.001243209
0.001530339
0.001510353
0.002400014
0.002380395
0.002400585
0.002380963
0.001528885
0.001508893
0.001262752
0.001242618
0.001258277
0.001238183
0.001516787
0.001496833
0.002395663
0.002376082
0.00240303
0.002383448
0.001541029
0.001521083
0.001265851
0.001245776
0.001258566
0.001238488
0.001515414
0.001495477
0.002397035
0.002377471
0.002408533
0.00238897
0.001548573
0.001528648
0.00127217
0.001252098
0.001286267
0.001266206
0.001668369
0.001648504
0.002978901
0.002959505
0.003700012
0.003680766
0.003962176
0.003942979
0.00318714
0.003167767
0.001763847
0.001743994
0.001345552
0.001325501
0.001327319
0.001307223
0.001621083
0.001601141
0.002536632
0.002517057
0.002525645
0.002506064
0.001588792
0.001568829
0.001311979
0.001291875
0.001319131
0.001299033
0.001613634
0.001593689
0.002530407
0.002510829
0.002523116
0.002503533
0.001587531
0.001567607
0.001309855
0.001289789
0.001313334
0.001293272
0.001599667
0.001579755
0.00252567
0.00250613
0.002524958
0.00250543
0.001598778
0.001578876
0.001313799
0.001293752
0.001313726
0.001293681
0.00159862
0.001578723
0.002524815
0.00250529
0.00252538
0.002505852
0.001599642
0.001579739
0.001313241
0.001293193
0.001309467
0.001289418
0.001587538
0.001567614
0.002521992
0.002502446
0.002529604
0.002510057
0.001612937
0.00159302
0.001318403
0.001298337
0.001312293
0.001292169
0.001588851
0.001568872
0.002526041
0.002506441
0.002537398
0.002517799
0.001621886
0.001601919
0.001328513
0.001308358
0.001347348
0.001327205
0.00176499
0.001745051
0.003188078
0.00316862
0.003963562
0.003944271
0.004211845
0.004192581
0.003380709
0.003361267
0.001852522
0.001832588
0.001402116
0.001381979
0.001378517
0.001358373
0.001686654
0.0016667
0.002652066
0.002632484
0.002641786
0.002622198
0.001657461
0.00163749
0.001361599
0.001341482
0.001366704
0.001346648
0.001677414
0.001657513
0.002643721
0.002624191
0.002636988
0.002617453
0.001656265
0.001636348
0.001358383
0.001338339
0.001361852
0.001341812
0.001669096
0.001649209
0.002639266
0.002619754
0.002636863
0.002617347
0.001661483
0.001641588
0.00136093
0.001340889
0.001360853
0.001340813
0.001661302
0.001641412
0.002636729
0.002617217
0.002639722
0.002620194
0.001669605
0.001649701
0.001362261
0.001342206
0.001358571
0.001338517
0.001656117
0.001636211
0.002637502
0.002617942
0.002644546
0.002624985
0.001678045
0.00165811
0.001367212
0.001347125
0.001360949
0.001340861
0.001656492
0.001636553
0.002640724
0.002621166
0.00265136
0.002631802
0.001686157
0.001666226
0.001377079
0.001356998
0.001399692
0.001379661
0.001849282
0.00182946
0.003376038
0.003356705
0.004207045
0.004187879
0.004439425
0.004420297
0.003555087
0.003535795
0.001932499
0.00191271
0.00145073
0.001430734
0.001421986
0.001401981
0.001744305
0.001724456
0.002752071
0.002732596
0.00274279
0.002723309
0.001718806
0.001698941
0.001405274
0.001385261
0.001409794
0.001389786
0.001732564
0.001712697
0.002743962
0.00272447
0.002739979
0.002720483
0.001723744
0.001703867
0.001405294
0.001385267
0.001408796
0.001388737
0.001734982
0.001715081
0.002743338
0.002723811
0.002739971
0.002720441
0.001722285
0.001702373
0.001406451
0.001386389
0.001406362
0.001386302
0.001722074
0.001702166
0.002739813
0.002720286
0.002743509
0.00272398
0.001734397
0.001714525
0.001408127
0.001388102
0.001405255
0.00138523
0.001723659
0.001703788
0.002739945
0.002720453
0.002743787
0.002724307
0.001732427
0.001712569
0.001409889
0.00138988
0.001405037
0.001385027
0.001718308
0.001698449
0.002742181
0.002722704
0.002751799
0.002732322
0.001744204
0.001724352
0.0014215
0.001401497
0.001449731
0.001429744
0.00193122
0.001911434
0.003552606
0.003533315
0.00443629
0.004417168
0.00465369
0.0046346
0.003720369
0.0037011
0.002012149
0.001992344
0.001499804
0.001479786
0.001465951
0.001445921
0.001801544
0.001781672
0.002845095
0.002825598
0.002836602
0.0028171
0.001777274
0.001757388
0.00144823
0.001428193
0.001451477
0.001431443
0.00178441
0.001764532
0.002826291
0.002806824
0.002832244
0.002812776
0.001788826
0.00176898
0.00145006
0.001430059
0.001451007
0.001431009
0.001791076
0.001771251
0.00283463
0.002815181
0.002831332
0.002811878
0.001779676
0.00175984
0.001448126
0.001428139
0.001448031
0.001428046
0.001779445
0.001759615
0.002831168
0.002811717
0.00283479
0.002815337
0.001791115
0.001771285
0.001450923
0.001430923
0.001450001
0.001430002
0.001788712
0.001768872
0.002832165
0.0028127
0.002826407
0.002806938
0.001784547
0.001764664
0.001451558
0.001431523
0.00144808
0.001428045
0.001776975
0.001757094
0.00283609
0.002816592
0.002844867
0.002825369
0.001801348
0.001781472
0.001465572
0.001445544
0.001498886
0.001478877
0.002010645
0.001990856
0.003717686
0.003698431
0.004650708
0.004631624
0.004854625
0.00483557
0.003878095
0.003858859
0.00209096
0.00207122
0.001546094
0.001526151
0.001506372
0.001486415
0.001853547
0.001833747
0.002926811
0.002907387
0.002919126
0.002899697
0.001831231
0.001811419
0.001487383
0.001467417
0.00148899
0.001469028
0.001831263
0.001811456
0.002897622
0.00287819
0.002914957
0.002895513
0.001851098
0.001831279
0.001493152
0.001473175
0.001491675
0.0014717
0.001843724
0.001823908
0.002919713
0.002900238
0.002917039
0.00289756
0.001836499
0.001816639
0.001489963
0.001469948
0.001489863
0.001469851
0.001836281
0.001816426
0.002916879
0.002897403
0.002919929
0.002900451
0.001844744
0.001824887
0.001492542
0.001472529
0.001493119
0.001473144
0.001850957
0.001831143
0.002914893
0.002895451
0.002898257
0.002878807
0.001831842
0.001812014
0.001489093
0.001469128
0.001487269
0.001467306
0.001831001
0.001811193
0.002918713
0.002899287
0.002926651
0.002907224
0.001853369
0.001833565
0.001506064
0.001486107
0.001545204
0.001525268
0.002088997
0.002069286
0.003874964
0.003855756
0.004851802
0.00483275
0.005043381
0.005024355
0.004024688
0.004005481
0.002163718
0.002144003
0.001591091
0.001571155
0.001546089
0.001526102
0.00190023
0.0018804
0.003003046
0.002983593
0.002997179
0.002977721
0.00188607
0.00186623
0.001527087
0.001507092
0.001526625
0.001506631
0.001877605
0.001857767
0.002965401
0.002945937
0.002990673
0.002971213
0.001906498
0.001886701
0.001533372
0.001513414
0.001529679
0.001509722
0.001890539
0.001870741
0.002994591
0.002975169
0.002992602
0.002973191
0.001887668
0.001867878
0.001527633
0.001507687
0.001527522
0.001507579
0.001887408
0.001867623
0.002992427
0.002973018
0.00299439
0.002974978
0.001890649
0.001870858
0.001529654
0.001509708
0.001533021
0.001513079
0.001906458
0.00188666
0.00298962
0.002970191
0.002964624
0.002945185
0.001877142
0.001857327
0.001526044
0.001506077
0.001527551
0.001507532
0.001886477
0.001866617
0.002997716
0.002978236
0.00300386
0.002984378
0.001900915
0.001881055
0.001547357
0.00152731
0.001592648
0.001572624
0.002164654
0.00214486
0.004025341
0.004006054
0.00504445
0.005025335
0.00522671
0.005207599
0.004174095
0.004154802
0.002248042
0.00222824
0.001640248
0.001620218
0.001586313
0.001566264
0.00194508
0.001925219
0.003069933
0.003050449
0.003070345
0.003050858
0.001946304
0.001926441
0.001568286
0.001548264
0.001562894
0.001542929
0.001922519
0.001902709
0.003035056
0.00301562
0.003060467
0.003041035
0.001961084
0.001941284
0.001572819
0.001552877
0.001566795
0.001546851
0.001936993
0.001917208
0.003063901
0.003044493
0.003064188
0.003044777
0.001943017
0.001923231
0.001566989
0.001547046
0.001566868
0.001546927
0.001942706
0.001922926
0.003063971
0.003044564
0.003064378
0.003044955
0.001937624
0.001917822
0.001567226
0.001547269
0.001572984
0.001553033
0.001960819
0.001941033
0.003060796
0.003041343
0.003035573
0.003016111
0.001923177
0.001903337
0.001563359
0.001543367
0.001567469
0.001547482
0.001945169
0.001925344
0.003069114
0.003049664
0.003069142
0.003049689
0.001944371
0.00192454
0.001584805
0.001564824
0.001637584
0.001617664
0.002244479
0.002224793
0.004169027
0.004149846
0.005221463
0.005202452
0.005395467
0.005376478
0.004310789
0.004291632
0.002325506
0.002305844
0.001683651
0.001663756
0.001620617
0.0016007
0.001983313
0.001963549
0.003120112
0.003100721
0.003133352
0.003113962
0.002002164
0.001982404
0.001605896
0.001585974
0.00159761
0.001577687
0.001965446
0.001945664
0.003098326
0.003078917
0.003125263
0.003105858
0.002010841
0.001991071
0.001610655
0.001590722
0.001603351
0.001583383
0.001981094
0.001961285
0.003128301
0.003108867
0.003132199
0.003112763
0.001997147
0.001977339
0.001606376
0.001586408
0.001606246
0.00158628
0.001996806
0.001977003
0.003132009
0.003112576
0.003128582
0.003109146
0.001980669
0.001960888
0.001602768
0.001582832
0.001610618
0.001590687
0.002010722
0.001990958
0.00312508
0.003105678
0.003097837
0.003078439
0.001965333
0.001945559
0.001597694
0.001577769
0.00160554
0.001585621
0.002001485
0.001981732
0.003132724
0.003113338
0.003119987
0.003100594
0.001983147
0.001963381
0.001620069
0.001600155
0.001682445
0.001662561
0.002323802
0.002304143
0.004307844
0.00428869
0.005391943
0.005372959
0.005564977
0.005546012
0.004466147
0.004447005
0.002439847
0.002420177
0.001739712
0.001719797
0.001660767
0.001640823
0.002028102
0.00200831
0.003182322
0.003162901
0.003200262
0.003180843
0.002075956
0.002056179
0.001650859
0.001630913
0.001636937
0.001616987
0.002020972
0.00200118
0.003168057
0.003148667
0.003191002
0.003171614
0.002073107
0.002053363
0.001652428
0.001632516
0.001641933
0.001622018
0.002035324
0.002015584
0.003190739
0.003171368
0.003197059
0.003177686
0.002061482
0.002041747
0.001648122
0.001628222
0.001647986
0.001628088
0.002061134
0.002041404
0.003196873
0.003177503
0.003190995
0.00317162
0.002035498
0.002015753
0.001641914
0.001621997
0.001652387
0.001632478
0.002073012
0.002053273
0.003190781
0.003171397
0.003167911
0.003148518
0.002021023
0.002001226
0.001636991
0.001617039
0.001650556
0.001630612
0.002075326
0.002055556
0.003199731
0.003180316
0.0031823
0.003162878
0.002028039
0.002008244
0.001660335
0.001640394
0.001738649
0.001718744
0.002437992
0.002418339
0.004463021
0.004443895
0.005561586
0.005542627
0.005749668
0.005730729
0.004663783
0.004644676
0.002616912
0.002597331
0.001811548
0.001791711
0.001706489
0.001686614
0.002090716
0.002070995
0.003249478
0.00323012
0.003271653
0.003252298
0.002169078
0.002149383
0.00170166
0.001681785
0.00168128
0.001661398
0.00209612
0.002076404
0.003240872
0.003221513
0.003262697
0.003243327
0.002155579
0.002135866
0.001700662
0.001680772
0.001687828
0.001667935
0.002113669
0.002093946
0.00326136
0.00324196
0.00326948
0.003250078
0.002144681
0.00212493
0.001697396
0.001677472
0.001697257
0.001677335
0.002144347
0.002124602
0.003269302
0.003249904
0.003261656
0.003242252
0.002114777
0.002095015
0.001688715
0.001668786
0.00170065
0.001680762
0.002155466
0.002135758
0.003262506
0.003243139
0.003241274
0.003221898
0.002096572
0.002076836
0.001681349
0.001661464
0.001701399
0.001681526
0.002168521
0.002148831
0.003271219
0.003251867
0.003249493
0.003230132
0.002090729
0.002071004
0.001706123
0.001686249
0.001810523
0.001790695
0.002614687
0.002595134
0.004660326
0.004641245
0.005746479
0.005727544
0.005970436
0.005951525
0.004898471
0.0048794
0.002819222
0.002799697
0.001899738
0.001879921
0.001762789
0.001742889
0.002172605
0.002152866
0.003331959
0.003312574
0.003359816
0.003340434
0.002275929
0.002256224
0.001762502
0.001742605
0.001735489
0.001715583
0.002187534
0.002167804
0.003327882
0.003308497
0.003349387
0.003330003
0.002252146
0.002232465
0.001756825
0.001736959
0.001741977
0.001722106
0.002207121
0.00218743
0.003343659
0.003324309
0.003352374
0.003333036
0.002237969
0.002218296
0.001752028
0.001732173
0.001751892
0.001732039
0.002237665
0.002217997
0.003352202
0.003332865
0.003343537
0.003324195
0.002207275
0.002187589
0.001741996
0.001722135
0.001756493
0.001736641
0.002252086
0.002232403
0.003348325
0.003328968
0.003327125
0.00330776
0.002187082
0.002167369
0.001734973
0.001715089
0.001763035
0.001743109
0.002276342
0.002256611
0.003360635
0.003341224
0.003333189
0.003313769
0.002173616
0.002153841
0.00176414
0.001744178
0.00190126
0.001881355
0.002820062
0.002800456
0.004899223
0.004880072
0.005971626
0.005952624
0.006314435
0.00629545
0.005371722
0.005352608
0.003395445
0.003375953
0.002068373
0.002048499
0.001882564
0.001862628
0.002406433
0.002386724
0.003474018
0.003454611
0.003513261
0.00349386
0.002552175
0.002532511
0.001877966
0.001858065
0.001845696
0.001825844
0.002438174
0.002418538
0.003475171
0.003455825
0.003498183
0.003478838
0.002509295
0.002489677
0.001867755
0.001847931
0.001852334
0.001832506
0.002462253
0.002442646
0.003490057
0.003470734
0.00349972
0.003480397
0.002492506
0.002472905
0.00186274
0.001842916
0.001862598
0.001842776
0.002492218
0.002472623
0.003499502
0.003480184
0.003490574
0.003471238
0.002462852
0.002443229
0.001852771
0.00183293
0.001867878
0.001848045
0.002508834
0.002489232
0.003498452
0.00347909
0.003475804
0.003456434
0.002438843
0.002419181
0.001846124
0.001826249
0.00187693
0.00185707
0.00255075
0.002531131
0.003511725
0.003492366
0.003472861
0.003453491
0.002405526
0.002385852
0.001880746
0.001860884
0.002065176
0.002045417
0.003390774
0.003371401
0.005365523
0.005346524
0.006308095
0.006289214
0.006880277
0.006861459
0.006088202
0.006069299
0.004285737
0.004266552
0.002452616
0.002432987
0.002176231
0.002156523
0.002841091
0.002821599
0.003767829
0.003748567
0.003816822
0.003797567
0.002998945
0.002979496
0.002164392
0.002144685
0.002127055
0.002107338
0.002880107
0.002860617
0.003778304
0.003759033
0.003801404
0.003782135
0.002945293
0.002925816
0.002151073
0.002131349
0.002135994
0.002116235
0.002905414
0.0028859
0.003795021
0.003775722
0.003803938
0.003784638
0.002929389
0.002909876
0.00214656
0.002126802
0.002146407
0.002126652
0.002929108
0.002909601
0.003803731
0.003784434
0.003795155
0.003775853
0.002904719
0.002885231
0.00213522
0.002115491
0.002150901
0.00213118
0.002944828
0.002925357
0.003801107
0.00378184
0.003777938
0.003758677
0.002880045
0.002860564
0.002127139
0.00210742
0.00216392
0.002144216
0.002998137
0.002978694
0.003815972
0.003796722
0.003767306
0.003748044
0.002840653
0.00282116
0.002175393
0.002155689
0.002450814
0.002431198
0.004282658
0.004263477
0.006084223
0.006065322
0.006875888
0.006857074
0.002100263
0.00204677
0.0019956
0.001947114
0.001901614
0.001859342
0.001820474
0.001785126
0.00175335
0.001725138
0.001700423
0.00167909
0.001660978
0.00164589
0.001633604
0.001623887
0.001616498
0.00161121
0.001607818
0.001606153
0.001166916
0.001110584
0.001055807
0.001003502
0.0009544145
0.0009091407
0.0008681343
0.0008317089
0.0008000368
0.0007731497
0.0007509427
0.0007331852
0.0007195363
0.000709564
0.0007027661
0.0006985902
0.0006964517
0.0006957494
0.0006958775
0.0006962363
0.0005714576
0.0005125115
0.000453471
0.0003951804
0.0003386734
0.000285073
0.0002354648
0.0001907669
0.0001516186
0.0001183131
9.078475e-05
6.865198e-05
5.130032e-05
3.798402e-05
2.792412e-05
2.038656e-05
1.473243e-05
1.044094e-05
7.1121e-06
4.450878e-06
0.0005151538
0.00045678
0.0003989989
0.0003425976
0.0002885508
0.0002379099
0.0001916722
0.0001506489
0.0001153604
8.597736e-05
6.232122e-05
4.391692e-05
3.008269e-05
2.003322e-05
1.29748e-05
8.177745e-06
5.020156e-06
3.004977e-06
1.755155e-06
1.000948e-06
0.0005219586
0.000463648
0.00040593
0.0003495496
0.000295434
0.0002445935
0.0001980002
0.000156464
0.0001205286
9.040914e-05
6.598246e-05
4.682911e-05
3.231318e-05
2.167962e-05
1.414597e-05
8.979808e-06
5.54776e-06
3.336621e-06
1.953597e-06
1.112996e-06
0.0005666132
0.0005079118
0.0004491806
0.0003912219
0.0003350356
0.0002817201
0.0002323481
0.0001878358
0.0001488313
0.0001156432
8.822475e-05
6.621231e-05
4.900531e-05
3.586615e-05
2.602e-05
1.873113e-05
1.335413e-05
9.359368e-06
6.33607e-06
3.980865e-06
0.001058831
0.001003496
0.0009502428
0.0008996131
0.0008520478
0.0008079003
0.0007674416
0.0007308604
0.0006982617
0.0006696661
0.0006450122
0.0006241627
0.0006069144
0.0005930093
0.0005821471
0.0005739958
0.0005682018
0.000564397
0.000562205
0.0005612466
0.001027433
0.0009719163
0.0009184111
0.0008674922
0.0008196294
0.0007752012
0.0007345001
0.0006977324
0.0006650162
0.0006363801
0.0006117649
0.0005910304
0.0005739649
0.000560298
0.0005497129
0.0005418585
0.0005363601
0.000532827
0.0005308593
0.0005300535
0.0005623267
0.0005036592
0.0004450181
0.0003872084
0.0003312284
0.0002781697
0.0002290944
0.0001849056
0.0001462371
0.0001133839
8.628781e-05
6.457632e-05
4.76431e-05
3.474775e-05
2.51132e-05
1.800417e-05
1.277909e-05
8.913774e-06
6.002061e-06
3.744342e-06
0.0005201681
0.0004619709
0.0004043625
0.0003480909
0.0002940866
0.0002433627
0.0001968927
0.0001554859
0.0001196835
8.969648e-05
6.539675e-05
4.636009e-05
3.194684e-05
2.139966e-05
1.393745e-05
8.82985e-06
5.444407e-06
3.268368e-06
1.9105e-06
1.087107e-06
0.0005196774
0.0004616747
0.0004042509
0.000348147
0.000294286
0.0002436741
0.0001972801
0.0001559118
0.0001201133
9.010161e-05
6.575693e-05
4.666407e-05
3.219156e-05
2.158839e-05
1.407748e-05
8.930297e-06
5.513405e-06
3.313846e-06
1.939289e-06
1.104605e-06
0.0005624354
0.0005039545
0.0004454769
0.0003878025
0.0003319249
0.0002789335
0.0002298897
0.0001856987
0.0001469987
0.0001140911
8.692459e-05
6.513407e-05
4.811961e-05
3.514579e-05
2.543896e-05
1.826564e-05
1.298588e-05
9.074321e-06
6.123467e-06
3.832376e-06
0.001035342
0.0009800896
0.0009268705
0.00087624
0.0008286517
0.0007844709
0.0007439796
0.0007073762
0.0006747739
0.0006461995
0.0006215949
0.000600824
0.0005836816
0.0005699059
0.0005591899
0.0005511938
0.0005455539
0.0005418916
0.0005398183
0.0005389425
0.001030688
0.0009754073
0.0009221513
0.0008714804
0.0008238526
0.000779637
0.0007391183
0.0007024974
0.0006698889
0.00064132
0.0006167327
0.0005959894
0.0005788836
0.0005651507
0.0005544813
0.0005465326
0.000540938
0.0005373157
0.0005352744
0.0005344196
0.0005618448
0.0005033666
0.0004449013
0.0003872488
0.0003314021
0.0002784486
0.0002294481
0.0001853032
0.0001466501
0.0001137881
8.666476e-05
6.49139e-05
4.793514e-05
3.4993e-05
2.531395e-05
1.816484e-05
1.290562e-05
9.011724e-06
6.076245e-06
3.79873e-06
0.0005189541
0.0004610184
0.0004036612
0.0003476233
0.0002938274
0.0002432787
0.0001969452
0.0001556341
0.000119888
8.992319e-05
6.561917e-05
4.656042e-05
3.211551e-05
2.15339e-05
1.403924e-05
8.903853e-06
5.495727e-06
3.302418e-06
1.932146e-06
1.10029e-06
0.0005191583
0.0004612248
0.0004038695
0.0003478321
0.0002940337
0.0002434788
0.0001971346
0.0001558082
0.0001200429
9.005635e-05
6.572958e-05
4.664867e-05
3.218353e-05
2.158451e-05
1.407564e-05
8.929244e-06
5.512782e-06
3.313462e-06
1.939047e-06
1.104452e-06
0.0005616501
0.0005032402
0.0004448366
0.0003872378
0.0003314357
0.000278517
0.0002295413
0.0001854116
0.0001467651
0.0001139025
8.677296e-05
6.501218e-05
4.80214e-05
3.50665e-05
2.537495e-05
1.821425e-05
1.294487e-05
9.042171e-06
6.099126e-06
3.81509e-06
0.001032009
0.0009768101
0.000923637
0.0008730464
0.0008254932
0.0007813436
0.0007408806
0.0007043037
0.0006717266
0.0006431768
0.0006185966
0.0005978501
0.0005807321
0.0005669804
0.0005562877
0.0005483136
0.000542694
0.0005390491
0.0005369899
0.0005361236
0.00103034
0.0009751287
0.0009219403
0.0008713332
0.000823764
0.0007796005
0.000739127
0.0007025439
0.0006699658
0.0006414201
0.0006168492
0.0005961165
0.0005790159
0.000565284
0.0005546124
0.000546659
0.0005410584
0.0005374298
0.0005353828
0.000534524
0.0005613954
0.0005029867
0.0004445872
0.0003869959
0.0003312046
0.0002782999
0.0002293408
0.00018523
0.0001466035
0.0001137615
8.665218e-05
6.491056e-05
4.793735e-05
3.49981e-05
2.532016e-05
1.817108e-05
1.29114e-05
9.016795e-06
6.080559e-06
3.802321e-06
0.0005190041
0.0004610721
0.0004037187
0.0003476843
0.0002938906
0.0002433426
0.0001970077
0.0001556931
0.0001199417
8.997011e-05
6.565863e-05
4.659231e-05
3.214034e-05
2.155254e-05
1.405276e-05
8.913367e-06
5.502179e-06
3.306644e-06
1.934827e-06
1.101941e-06
0.0005189962
0.0004610652
0.0004037127
0.0003476791
0.0002938863
0.000243339
0.0001970049
0.0001556908
0.00011994
8.996884e-05
6.56577e-05
4.659167e-05
3.21399e-05
2.155224e-05
1.405257e-05
8.913251e-06
5.50211e-06
3.306605e-06
1.934806e-06
1.101931e-06