/*--------------------------------*- C++ -*----------------------------------*\
| =========                 |                                                 |
| \\      /  F ield         | OpenFOAM: The Open Source CFD Toolbox           |
|  \\    /   O peration     | Version:  4.0                                   |
|   \\  /    A nd           | Web:      www.OpenFOAM.org                      |
|    \\/     M anipulation  |                                                 |
\*---------------------------------------------------------------------------*/
FoamFile
{
    version     2.0;
    format      ascii;
    class       volScalarField;
    location    "120/fuel";
    object      XCO2fuel;
}
// * * * * * * * * * * * * * * * * * * * * * * * * * * * * * * * * * * * * * //

dimensions      [0 0 0 0 0 0 0];

internalField   nonuniform List<scalar> 
39776
(
0.0002410682
0.0002312533
0.0002608879
0.0002511052
0.0002864725
0.0002767285
0.0002800776
0.0002703239
0.0002559153
0.0002461229
0.0002629557
0.0002531766
0.0002473934
0.0002375906
0.0002431447
0.0002333355
0.0002589503
0.0002491674
0.00023552
0.0002256959
0.0002097759
0.0001999052
0.0002499876
0.0002401912
0.0002328626
0.0002230366
0.000230477
0.0002206471
0.0002455065
0.000235703
0.0002093863
0.0001995158
0.0002067947
0.000196919
0.0002442566
0.0002344514
0.0002293855
0.0002195541
0.0002286793
0.0002188466
0.0002425828
0.0002327757
0.0002039035
0.0001940227
0.0002043195
0.0001944392
0.0002426787
0.0002328718
0.0002286988
0.0002188669
0.0002292704
0.0002194391
0.0002440924
0.0002342872
0.0002067814
0.0001969058
0.0002093603
0.00019949
0.0002455192
0.0002357163
0.0002304915
0.000220662
0.0002328165
0.0002229909
0.0002499852
0.0002401891
0.0002101324
0.0002002626
0.0002354777
0.0002256538
0.0002589543
0.0002491717
0.000243091
0.0002332821
0.000247298
0.0002374954
0.0002629907
0.0002532121
0.0002560587
0.0002462667
0.0002804092
0.0002706559
0.0002864247
0.0002766812
0.0002608884
0.0002511062
0.0002411182
0.000231304
0.0002150482
0.0002051921
0.0001731479
0.0001632107
0.0001422416
0.0001322235
0.0001352334
0.0001251951
0.0001456899
0.0001356817
0.0001493361
0.0001393367
0.0001940528
0.0001841598
0.0001664111
0.0001564581
0.0001324547
0.0001224085
0.0001339215
0.0001238812
0.0001346529
0.0001246143
0.0001337262
0.0001236835
0.0001737871
0.000163851
0.0001653909
0.0001554353
0.000129893
0.0001198389
0.0001324238
0.0001223788
0.0001328541
0.0001228097
0.0001309385
0.0001208871
0.0001687317
0.0001587837
0.0001666332
0.0001566801
0.0001301395
0.0001200856
0.0001323961
0.0001223506
0.0001324723
0.000122427
0.0001301801
0.0001201264
0.0001666846
0.0001567317
0.000168644
0.0001586958
0.0001308631
0.0001208119
0.0001327988
0.0001227547
0.0001324208
0.0001223758
0.0001298975
0.0001198434
0.0001653923
0.0001554368
0.0001737639
0.0001638282
0.0001337011
0.0001236588
0.0001345372
0.0001244985
0.0001339506
0.0001239101
0.0001324404
0.0001223941
0.0001663825
0.0001564294
0.000194006
0.0001841129
0.0001492659
0.0001392666
0.0001456898
0.0001356819
0.0001352806
0.0001252426
0.0001423067
0.0001322885
0.0001732201
0.0001632828
0.0002150901
0.0002052343
0.0001953028
0.0001854091
0.0001632045
0.0001532427
0.0001353287
0.00012529
0.0001428431
0.0001328263
0.0001673001
0.0001573452
0.0001648054
0.0001548437
0.0001954136
0.0001855193
0.0001708447
0.0001608987
0.0001387702
0.0001287416
0.0001512056
0.0001412112
0.0001554263
0.000145443
0.0001444415
0.0001344288
0.0001832922
0.0001733737
0.0001729445
0.0001630034
0.0001383496
0.0001283206
0.0001526783
0.0001426884
0.0001542139
0.0001442278
0.0001407956
0.0001307738
0.000177944
0.0001680143
0.0001749996
0.0001650635
0.0001393405
0.0001293146
0.0001534517
0.0001434643
0.0001535308
0.0001435435
0.0001393902
0.0001293645
0.0001750819
0.0001651459
0.0001778456
0.0001679157
0.0001407145
0.0001306925
0.0001541648
0.0001441786
0.0001526816
0.0001426917
0.0001383679
0.000128339
0.0001729489
0.0001630079
0.0001832831
0.0001733645
0.0001444295
0.0001344168
0.0001554601
0.0001454768
0.0001511887
0.0001411942
0.000138769
0.0001287404
0.0001708377
0.0001608917
0.0001953733
0.000185479
0.000164708
0.0001547461
0.0001673026
0.0001573476
0.0001429391
0.0001329223
0.0001353688
0.0001253301
0.0001632349
0.0001532731
0.0001953155
0.0001854218
0.0001952513
0.0001853568
0.0001693411
0.0001593916
0.0001406605
0.0001306375
0.0001519716
0.0001419794
0.0001851647
0.0001752504
0.0001807054
0.0001707802
0.0002090915
0.0001992239
0.0001819727
0.000172051
0.0001499597
0.0001399619
0.0001676995
0.0001577459
0.0001736269
0.0001636874
0.0001583101
0.0001483336
0.0001957171
0.0001858235
0.0001851158
0.0001752003
0.0001509496
0.0001409542
0.0001705509
0.0001606039
0.0001721579
0.0001622145
0.0001540576
0.0001440701
0.0001903937
0.0001804886
0.000187303
0.0001773916
0.0001523183
0.000142326
0.0001713852
0.0001614398
0.0001714586
0.0001615132
0.0001523732
0.0001423811
0.0001873982
0.0001774871
0.000190301
0.0001803958
0.0001539878
0.0001439997
0.0001721252
0.0001621813
0.000170552
0.000160605
0.0001509755
0.0001409802
0.0001851348
0.0001752193
0.0001957089
0.0001858148
0.0001582947
0.0001483177
0.0001736603
0.0001637209
0.0001676895
0.0001577361
0.0001499665
0.0001399689
0.0001819809
0.0001720592
0.0002090697
0.000199202
0.000180594
0.0001706684
0.0001851878
0.0001752733
0.0001520713
0.0001420789
0.0001407018
0.0001306791
0.0001693535
0.0001594043
0.0001952565
0.0001853617
0.000209621
0.0001997536
0.0001793369
0.0001694085
0.0001514684
0.0001414742
0.0001646668
0.0001547052
0.0002015104
0.0001916279
0.0001992776
0.0001893893
0.000218354
0.0002085017
0.0001926434
0.0001827421
0.0001632227
0.0001532569
0.0001830529
0.0001731323
0.0001907539
0.0001808498
0.0001758701
0.0001659334
0.0002054261
0.0001955502
0.000196651
0.0001867582
0.000165831
0.0001558716
0.00018654
0.0001766273
0.000188586
0.0001786775
0.0001704454
0.0001604966
0.0002006238
0.0001907389
0.0001981045
0.0001882152
0.0001680837
0.0001581299
0.0001876593
0.0001777493
0.0001877295
0.0001778197
0.0001681398
0.0001581861
0.0001981894
0.0001882996
0.0002005525
0.0001906672
0.0001703754
0.0001604262
0.0001885504
0.0001786416
0.0001865451
0.0001766321
0.0001658738
0.000155914
0.0001966704
0.0001867773
0.0002054226
0.0001955463
0.0001758562
0.000165919
0.000190789
0.0001808845
0.0001830451
0.0001731242
0.0001632375
0.0001532715
0.0001926539
0.0001827525
0.0002183577
0.0002085053
0.0001991721
0.0001892834
0.0002015374
0.0001916549
0.0001647738
0.0001548118
0.0001515231
0.0001415285
0.0001793537
0.0001694249
0.0002096291
0.0001997612
0.0002225602
0.0002127146
0.0001894892
0.0001795806
0.0001633035
0.0001533368
0.0001764875
0.0001665513
0.0002154408
0.000205583
0.000214609
0.0002047482
0.0002317722
0.0002219418
0.0002035437
0.0001936624
0.0001755569
0.000165618
0.0001968225
0.0001869286
0.0002065775
0.0001967045
0.0001900552
0.0001801488
0.0002181626
0.0002083105
0.0002086804
0.0001988109
0.0001789358
0.000169006
0.0002012821
0.0001913995
0.0002037613
0.0001938834
0.0001841749
0.0001742569
0.0002130247
0.000203164
0.0002102241
0.0002003582
0.0001814773
0.0001715536
0.0002026861
0.0001928063
0.0002027505
0.0001928708
0.0001815309
0.0001716074
0.0002102813
0.0002004156
0.0002129736
0.0002031129
0.000184105
0.0001741868
0.0002037199
0.000193842
0.0002012861
0.0001914036
0.0001789721
0.0001690431
0.0002087012
0.0001988312
0.0002181684
0.0002083159
0.000190044
0.000180137
0.0002066097
0.0001967361
0.0001968051
0.0001869123
0.0001755676
0.0001656298
0.0002035387
0.0001936586
0.0002317658
0.0002219366
0.0002144788
0.000204619
0.0002154691
0.0002056122
0.000176567
0.0001666336
0.0001633335
0.0001533695
0.0001894698
0.0001795639
0.0002225335
0.0002126906
0.0002351387
0.000225317
0.0001992829
0.0001893967
0.0001756992
0.0001657639
0.000187599
0.0001776895
0.0002275635
0.0002177298
0.0002291065
0.0002192743
0.0002446599
0.0002348536
0.000213633
0.0002037735
0.0001878055
0.0001778958
0.0002093236
0.0001994566
0.0002210324
0.0002111869
0.0002032145
0.0001933352
0.0002309559
0.0002211272
0.0002197348
0.0002098864
0.0001917318
0.0001818298
0.000214787
0.0002049301
0.0002177444
0.0002078912
0.0001971856
0.0001872931
0.000225
0.0002151595
0.0002219962
0.0002121504
0.0001943548
0.0001844566
0.0002164813
0.0002066259
0.0002165398
0.0002066845
0.0001944087
0.0001845107
0.0002220406
0.000212195
0.0002249561
0.0002151156
0.0001971008
0.0001872098
0.0002176816
0.00020783
0.0002147935
0.0002049367
0.0001917807
0.000181879
0.0002197496
0.0002099014
0.0002309568
0.0002211285
0.0002031859
0.000193307
0.0002210497
0.0002112045
0.0002093114
0.0001994447
0.0001878131
0.0001779037
0.0002136313
0.0002037721
0.0002446641
0.0002348582
0.000228979
0.0002191467
0.0002276142
0.0002177807
0.0001876945
0.0001777853
0.0001757498
0.0001658145
0.0001992768
0.0001893906
0.0002351282
0.0002253069
0.000247964
0.0002381631
0.0002094234
0.0001995562
0.0001875785
0.0001776668
0.0001982603
0.0001883704
0.0002381645
0.0002283466
0.0002421839
0.0002323712
0.0002573267
0.0002475384
0.0002234092
0.0002135654
0.0001992222
0.0001893336
0.0002208301
0.0002109822
0.0002341869
0.0002243621
0.0002152667
0.0002054083
0.0002436909
0.000233883
0.000230496
0.0002206662
0.0002034875
0.0001936086
0.0002271501
0.0002173149
0.0002304962
0.0002206666
0.0002089004
0.0001990321
0.0002371823
0.0002273642
0.0002336239
0.0002237997
0.0002060217
0.0001961479
0.0002290603
0.0002192285
0.0002291145
0.0002192828
0.0002060756
0.000196202
0.0002336539
0.0002238299
0.0002371493
0.0002273311
0.000208829
0.0001989604
0.000230444
0.0002206143
0.0002271643
0.0002173291
0.0002035546
0.000193676
0.0002305146
0.0002206848
0.0002437037
0.0002338959
0.0002152186
0.0002053601
0.0002341942
0.0002243693
0.0002208227
0.0002109747
0.0001992431
0.0001893546
0.0002233839
0.0002135402
0.0002573134
0.0002475252
0.0002420751
0.0002322622
0.0002382313
0.0002284134
0.0001983562
0.0001884664
0.0001876304
0.0001777188
0.0002094112
0.000199544
0.0002479592
0.0002381583
0.0002609185
0.0002511372
0.0002198052
0.0002099566
0.0001988271
0.0001889394
0.0002085576
0.0001986891
0.0002478541
0.0002380533
0.0002534933
0.0002436997
0.0002705606
0.0002607937
0.0002329102
0.0002230842
0.0002102541
0.0002003882
0.0002314891
0.0002216611
0.0002462454
0.0002364416
0.0002267924
0.000216956
0.0002559473
0.0002461586
0.0002414126
0.0002316005
0.0002144839
0.0002046252
0.0002385623
0.0002287458
0.0002421825
0.0002323717
0.000219785
0.000209936
0.0002492842
0.0002394832
0.0002454703
0.0002356632
0.0002169941
0.0002071383
0.0002406716
0.0002308568
0.000240721
0.0002309063
0.0002170501
0.0002071944
0.0002455037
0.0002356967
0.0002492479
0.0002394468
0.0002197301
0.0002098791
0.0002421501
0.0002323376
0.0002385787
0.000228762
0.0002145616
0.0002047029
0.0002414392
0.000231627
0.0002559678
0.0002461786
0.000226749
0.000216912
0.0002462491
0.000236445
0.0002314877
0.0002216594
0.0002102919
0.0002004258
0.0002328812
0.000223055
0.0002705433
0.0002607762
0.0002534022
0.0002436082
0.000247918
0.0002381171
0.0002086481
0.0001987795
0.0001988799
0.0001889925
0.0002197895
0.000209941
0.0002609147
0.0002511331
0.0002734389
0.0002636751
0.00023048
0.0002206491
0.000209624
0.0001997564
0.0002185614
0.0002087103
0.0002569872
0.000247198
0.0002632662
0.0002534846
0.0002827996
0.0002730473
0.0002434429
0.0002336316
0.0002209719
0.0002111228
0.000241458
0.000231644
0.0002574332
0.0002476442
0.0002379709
0.0002281507
0.0002678919
0.0002581184
0.0002525499
0.0002427531
0.0002248456
0.0002150042
0.0002490962
0.0002392954
0.000253073
0.0002432785
0.0002303736
0.000220542
0.0002609911
0.0002512086
0.0002572401
0.000247452
0.0002271773
0.0002173399
0.000251369
0.0002415718
0.000251413
0.0002416158
0.0002272373
0.0002174001
0.0002572767
0.0002474886
0.0002609467
0.0002511641
0.0002303008
0.000220469
0.0002530364
0.0002432417
0.0002491065
0.0002393057
0.0002249293
0.0002150874
0.0002525764
0.0002427803
0.0002678931
0.0002581201
0.0002379427
0.000228123
0.0002574306
0.0002476421
0.0002414696
0.0002316543
0.0002210386
0.0002111885
0.0002434607
0.0002336484
0.0002827763
0.0002730228
0.0002632017
0.0002534188
0.0002570497
0.0002472596
0.0002186683
0.0002088147
0.0002097066
0.0001998365
0.0002304957
0.0002206623
0.0002734624
0.0002636961
0.0002857688
0.000276021
0.0002412964
0.0002314823
0.0002202136
0.0002103642
0.000228322
0.0002184869
0.0002657406
0.0002559649
0.000271949
0.0002621814
0.0002935922
0.0002838557
0.0002547509
0.0002449584
0.0002315384
0.0002217086
0.0002508492
0.0002410512
0.000267603
0.0002578331
0.000248212
0.000238412
0.0002796778
0.0002699251
0.0002636617
0.0002538857
0.0002346332
0.0002248112
0.0002586911
0.000248908
0.000263366
0.00025359
0.0002408781
0.0002310669
0.0002723618
0.0002625989
0.0002686747
0.0002589064
0.0002366745
0.0002268558
0.000261243
0.0002514635
0.0002612648
0.0002514854
0.0002367313
0.0002269128
0.0002687177
0.0002589494
0.0002722941
0.0002625313
0.0002408099
0.0002309987
0.0002633339
0.000253558
0.0002587025
0.0002489196
0.0002347393
0.0002249179
0.0002637204
0.0002539429
0.0002797187
0.0002699643
0.0002481834
0.0002383816
0.0002676143
0.0002578426
0.0002508434
0.0002410465
0.0002315781
0.0002217499
0.0002547455
0.0002449545
0.0002935612
0.0002838261
0.0002718819
0.0002621156
0.000265758
0.0002559843
0.000228358
0.0002185272
0.000220245
0.0002103999
0.0002412614
0.0002314516
0.0002857202
0.0002759768
0.0002977715
0.0002880438
0.0002523035
0.0002425112
0.0002307159
0.0002208892
0.0002374741
0.0002276587
0.0002735088
0.0002637487
0.0002811079
0.0002713575
0.0003041699
0.0002944512
0.0002659068
0.0002561344
0.0002419269
0.0002321179
0.000259984
0.0002502038
0.0002769899
0.0002672343
0.000257366
0.0002475808
0.0002909284
0.0002811919
0.0002751237
0.0002653652
0.0002441266
0.0002343209
0.0002676175
0.0002578483
0.000273077
0.0002633134
0.0002507952
0.0002409979
0.0002837059
0.0002739575
0.0002798683
0.0002701144
0.0002458389
0.0002360338
0.0002704728
0.0002607056
0.0002704748
0.0002607076
0.0002458863
0.0002360815
0.0002799173
0.0002701636
0.000283627
0.0002738785
0.0002507296
0.0002409345
0.0002730346
0.0002632732
0.0002676385
0.0002578695
0.0002442913
0.0002344861
0.0002752126
0.0002654543
0.0002908926
0.0002811564
0.0002572882
0.0002475032
0.000276981
0.0002672256
0.0002599826
0.0002502026
0.0002419435
0.0002321349
0.0002658757
0.0002561036
0.0003041876
0.0002944691
0.0002810683
0.0002713179
0.0002735271
0.0002637671
0.0002375258
0.0002277105
0.0002307766
0.0002209499
0.000252322
0.0002425298
0.0002977543
0.0002880269
0.0003096709
0.0002999585
0.0002644089
0.0002546348
0.0002415639
0.0002317528
0.000246294
0.0002364904
0.0002800227
0.0002702692
0.0002908742
0.0002811352
0.0003149123
0.000305205
0.0002776582
0.0002679003
0.0002524771
0.0002426825
0.0002693163
0.0002595475
0.0002856866
0.0002759407
0.0002658075
0.0002560327
0.0003016724
0.0002919501
0.0002867615
0.0002770191
0.0002538412
0.0002440508
0.0002764546
0.0002666981
0.0002819072
0.0002721581
0.0002594096
0.0002496276
0.0002949074
0.0002851764
0.000290861
0.0002811244
0.0002553156
0.0002455278
0.0002791892
0.0002694366
0.0002791811
0.0002694285
0.0002553718
0.0002455843
0.0002909124
0.000281176
0.0002948338
0.0002851027
0.000259352
0.0002495697
0.0002818992
0.00027215
0.0002764808
0.0002667243
0.0002540551
0.0002442651
0.0002868836
0.0002771414
0.0003016112
0.0002918887
0.0002656953
0.0002559204
0.0002856705
0.0002759245
0.0002693144
0.0002595457
0.0002524938
0.0002426993
0.0002776197
0.0002678619
0.000314937
0.0003052297
0.0002908188
0.0002810796
0.0002800519
0.0002702984
0.0002463529
0.0002365493
0.0002416303
0.0002318193
0.0002644495
0.0002546756
0.0003096681
0.0002999557
0.0003216875
0.0003119896
0.0002776309
0.0002678757
0.0002525055
0.0002427135
0.0002548924
0.0002451042
0.0002858845
0.0002761412
0.0003001643
0.0002904398
0.0003251869
0.0003154943
0.0002903953
0.0002806568
0.0002627372
0.0002529598
0.0002784377
0.0002686839
0.0002938351
0.0002841022
0.0002740583
0.0002642977
0.0003122662
0.0003025574
0.0002984735
0.0002887464
0.0002639257
0.0002541502
0.0002853575
0.0002756131
0.0002899174
0.0002801788
0.0002673117
0.0002575408
0.0003058028
0.0002960833
0.0003020177
0.0002922933
0.000265214
0.0002554385
0.0002876501
0.0002779065
0.0002876245
0.000277881
0.0002652905
0.0002555152
0.0003020654
0.000292341
0.0003057174
0.0002959976
0.000267268
0.0002574946
0.0002899419
0.000280201
0.0002853891
0.0002756447
0.0002641602
0.0002543849
0.0002986118
0.0002888848
0.0003122174
0.0003025082
0.0002739432
0.000264182
0.0002938249
0.0002840917
0.0002784335
0.0002686795
0.0002627685
0.0002529909
0.0002903975
0.0002806589
0.0003251867
0.0003154939
0.0003000587
0.0002903338
0.0002859414
0.000276198
0.0002549609
0.0002451727
0.0002525664
0.0002427747
0.0002776708
0.0002679158
0.0003217007
0.0003120026
0.0003339028
0.0003242189
0.0002921084
0.0002823725
0.0002641409
0.0002543659
0.0002637729
0.0002539974
0.0002917613
0.0002820229
0.0003084386
0.0002987217
0.0003353702
0.0003256867
0.0003027783
0.0002930528
0.0002717272
0.0002619591
0.0002868927
0.000277147
0.0003016156
0.0002918895
0.0002827307
0.0002729792
0.0003230598
0.000313361
0.0003100175
0.0003003021
0.0002736569
0.0002638942
0.0002939151
0.0002841812
0.0002976953
0.0002879662
0.0002752771
0.0002655169
0.0003164878
0.0003067829
0.000313311
0.0003036017
0.0002755541
0.0002657943
0.0002959416
0.0002862099
0.000295913
0.0002861814
0.0002756819
0.0002659225
0.0003133428
0.0003036338
0.0003163576
0.0003066522
0.0002751581
0.0002653973
0.0002976876
0.0002879582
0.0002939643
0.0002842302
0.0002739093
0.0002641466
0.0003101346
0.000300421
0.0003229981
0.0003133009
0.0002826139
0.0002728639
0.0003015834
0.0002918589
0.0002868865
0.0002771396
0.0002717817
0.0002620125
0.0003028288
0.0002931021
0.0003353576
0.0003256726
0.0003083046
0.0002985858
0.0002918526
0.0002821122
0.0002638916
0.0002541119
0.0002642337
0.0002544546
0.0002921724
0.0002824323
0.0003339753
0.0003242872
0.0003464897
0.000336818
0.0003078823
0.0002981647
0.0002752837
0.0002655226
0.0002725695
0.0002628047
0.0002977313
0.000288001
0.0003156494
0.0003059422
0.0003448019
0.0003351299
0.0003147362
0.0003050266
0.0002784043
0.0002686456
0.00029398
0.0002842446
0.0003086836
0.0002989699
0.0002918886
0.0002821529
0.0003329383
0.0003232544
0.0003218705
0.0003121731
0.0002821917
0.0002724419
0.0003014803
0.0002917571
0.0003054163
0.0002956983
0.0002835625
0.000273815
0.0003267301
0.0003170387
0.0003249261
0.0003152325
0.0002853916
0.0002756459
0.0003039075
0.0002941869
0.000303904
0.0002941835
0.000285639
0.000275894
0.0003249561
0.000315262
0.0003265024
0.0003168103
0.0002833703
0.0002736219
0.0003053823
0.0002956638
0.0003015341
0.0002918107
0.0002824961
0.0002727461
0.00032204
0.0003123405
0.0003328713
0.0003231852
0.0002917779
0.0002820399
0.0003086894
0.0002989734
0.0002939647
0.0002842292
0.000278463
0.0002687049
0.0003147826
0.0003050736
0.0003447623
0.0003350905
0.0003154828
0.0003057756
0.0002977964
0.000288067
0.0002726238
0.0002628617
0.0002753043
0.0002655459
0.0003078467
0.0002981318
0.0003464884
0.0003368194
0.0003592787
0.0003496234
0.0003242919
0.0003145969
0.0002877373
0.000277996
0.0002823886
0.0002726403
0.0003046396
0.0002949209
0.0003228366
0.0003131401
0.0003534674
0.0003438066
0.0003266958
0.0003170026
0.0002859802
0.0002762339
0.000301133
0.0002914086
0.0003159762
0.0003062712
0.0003008865
0.0002911621
0.0003426719
0.0003329986
0.0003336278
0.0003239438
0.0002912866
0.0002815485
0.0003089607
0.0002992467
0.0003137308
0.0003040214
0.0002919673
0.0002822291
0.0003371869
0.0003275058
0.0003363785
0.0003266963
0.0002961668
0.0002864339
0.0003122793
0.0003025679
0.0003123424
0.0003026312
0.0002965224
0.0002867904
0.0003364026
0.0003267206
0.0003368647
0.0003271833
0.0002917007
0.0002819638
0.0003136458
0.000303938
0.000309038
0.0002993242
0.0002916376
0.0002819
0.000333753
0.0003240693
0.0003425488
0.0003328757
0.0003007001
0.0002909757
0.0003159961
0.0003062913
0.0003011355
0.0002914114
0.0002860778
0.0002763321
0.000326766
0.0003170732
0.0003534101
0.0003437492
0.0003226732
0.0003129762
0.0003046893
0.0002949704
0.0002824654
0.000272717
0.0002877888
0.0002780475
0.000324254
0.0003145589
0.0003592929
0.0003496376
0.0003729814
0.0003633403
0.000343126
0.0003334527
0.0003013611
0.0002916361
0.0002924302
0.0002826936
0.0003122743
0.0003025634
0.0003298705
0.0003201803
0.0003611707
0.0003515162
0.0003397696
0.0003300901
0.0002954524
0.000285718
0.0003085334
0.0002988169
0.0003233632
0.0003136656
0.0003095065
0.0002997911
0.0003518953
0.0003422322
0.0003463943
0.0003367248
0.0003009708
0.0002912455
0.0003167969
0.0003070927
0.0003219879
0.0003122903
0.0003000407
0.0002903145
0.0003478242
0.0003381571
0.0003482854
0.0003386183
0.0003067424
0.0002970246
0.0003209467
0.0003112475
0.0003210326
0.0003113335
0.0003072276
0.0002975105
0.0003483236
0.0003386567
0.0003474416
0.0003377739
0.0002997736
0.0002900469
0.0003219094
0.0003122115
0.0003169222
0.000307218
0.0003014614
0.0002917364
0.000346494
0.0003368247
0.0003517205
0.0003420575
0.0003092467
0.0002995311
0.0003233523
0.0003136547
0.0003085268
0.0002988104
0.0002955835
0.0002858497
0.0003398573
0.0003301781
0.0003610826
0.0003514278
0.0003297089
0.0003200183
0.0003123824
0.0003026714
0.0002925314
0.0002827949
0.0003013999
0.0002916751
0.0003431008
0.0003334277
0.0003729963
0.0003633552
0.0003875606
0.0003779342
0.0003614805
0.0003518272
0.0003203386
0.0003106392
0.0003063837
0.0002966669
0.0003230879
0.0003133918
0.0003407197
0.0003310439
0.0003678249
0.0003581785
0.0003526132
0.0003429499
0.0003134426
0.0003037343
0.0003204399
0.0003107404
0.000334063
0.0003243798
0.000321172
0.0003114725
0.0003614403
0.0003517873
0.0003579174
0.0003482604
0.0003159887
0.0003062829
0.0003283128
0.0003186227
0.0003325569
0.0003228719
0.0003116418
0.0003019307
0.0003595571
0.0003499007
0.0003596851
0.0003500285
0.0003214286
0.0003117269
0.0003326031
0.0003229159
0.000332709
0.000323022
0.0003219598
0.0003122587
0.0003597902
0.0003501337
0.0003591895
0.0003495326
0.0003112732
0.0003015599
0.0003324699
0.000322783
0.0003283699
0.0003186798
0.0003165057
0.0003068001
0.0003580033
0.0003483463
0.0003613407
0.0003516876
0.0003208363
0.0003111365
0.0003340842
0.0003244009
0.0003204879
0.0003107883
0.0003136632
0.0003039553
0.0003526994
0.0003430364
0.0003677298
0.000358083
0.0003404962
0.0003308199
0.0003231108
0.0003134148
0.0003064532
0.0002967365
0.0003204143
0.000310715
0.0003614858
0.0003518327
0.0003875718
0.0003779454
0.0004047161
0.0003951063
0.0003850112
0.0003753824
0.0003467772
0.0003371093
0.0003251109
0.0003154172
0.0003392049
0.000329526
0.0003563233
0.0003466639
0.0003750028
0.0003653617
0.0003680047
0.0003583564
0.0003393956
0.0003297163
0.0003371167
0.0003274342
0.0003495583
0.0003398904
0.0003403474
0.0003306678
0.0003724547
0.0003628108
0.0003713773
0.0003617323
0.0003365992
0.0003269179
0.0003437931
0.0003341206
0.0003471516
0.0003374828
0.0003316752
0.0003219881
0.000372711
0.0003630695
0.0003737189
0.0003640781
0.000340207
0.0003305285
0.0003482282
0.00033856
0.0003484524
0.0003387844
0.0003411182
0.00033144
0.000373902
0.0003642619
0.0003723648
0.0003627232
0.0003311948
0.0003215075
0.0003470151
0.0003373463
0.0003437993
0.0003341272
0.0003372
0.0003275188
0.0003715322
0.0003618896
0.0003723001
0.0003626585
0.0003398765
0.0003301996
0.0003494793
0.0003398137
0.0003370042
0.0003273223
0.0003397872
0.0003301084
0.0003680501
0.0003584015
0.0003749238
0.0003652821
0.000356011
0.0003463506
0.0003389544
0.0003292747
0.0003254694
0.0003157731
0.000346939
0.0003372684
0.0003850762
0.0003754448
0.0004047723
0.0003951598
0.0004260422
0.0004164495
0.0004119262
0.0004023208
0.0003787082
0.0003690717
0.0003471608
0.0003374898
0.0003580131
0.0003483539
0.0003748955
0.0003652553
0.0003817085
0.0003720743
0.0003814853
0.0003718508
0.0003698147
0.0003601693
0.0003589805
0.0003493228
0.000368318
0.0003586723
0.0003612062
0.0003515522
0.0003823439
0.0003727116
0.0003834989
0.000373868
0.0003619587
0.0003523054
0.0003636759
0.0003540248
0.0003667739
0.0003571265
0.0003581739
0.0003485176
0.0003855681
0.0003759394
0.0003851137
0.0003754838
0.0003600653
0.0003504075
0.0003670107
0.000357362
0.0003671749
0.0003575265
0.0003607297
0.0003510724
0.000385345
0.0003757145
0.0003852327
0.0003756029
0.0003577328
0.0003480752
0.0003666289
0.0003569805
0.0003634918
0.0003538401
0.0003621267
0.0003524724
0.0003837854
0.0003741524
0.0003824335
0.0003727992
0.0003607825
0.0003511266
0.0003682163
0.0003585684
0.0003589112
0.0003492528
0.0003703273
0.0003606821
0.0003814712
0.0003718364
0.0003815779
0.0003719429
0.000374448
0.0003648068
0.0003576802
0.0003480217
0.0003474438
0.0003377748
0.0003789269
0.0003692922
0.0004120225
0.000402419
0.0004260656
0.0004164748
0.0004516356
0.0004420671
0.0004476603
0.0004380884
0.0004451526
0.0004355823
0.0003952603
0.000385642
0.0004044648
0.0003948558
0.0004137255
0.000404126
0.0003933824
0.0003837603
0.0003986429
0.0003890255
0.0004203465
0.0004107529
0.0004084108
0.0003988052
0.0004128904
0.0004032892
0.0004061737
0.000396566
0.0003951054
0.0003854842
0.0004011861
0.0003915709
0.0004143621
0.0004047621
0.0004113007
0.0004016975
0.0004141233
0.0004045218
0.0004123132
0.0004027107
0.0004019885
0.0003923727
0.0004014781
0.000391862
0.000411118
0.0004015128
0.0004134461
0.0004038433
0.0004137111
0.0004041086
0.0004115481
0.0004019435
0.0004016196
0.0003920037
0.00040176
0.0003921441
0.0004119663
0.0004023649
0.0004138629
0.0004042626
0.0004110408
0.0004014377
0.0004145053
0.0004049055
0.000401499
0.0003918844
0.0003951917
0.000385571
0.0004060143
0.0003964071
0.0004127688
0.0004031679
0.0004083807
0.0003987756
0.0004203987
0.0004108055
0.0003984569
0.0003888396
0.0003931679
0.0003835456
0.0004134705
0.0004038704
0.0004040776
0.0003944683
0.0003953017
0.0003856834
0.0004453968
0.0004358264
0.000447858
0.0004382859
0.0004517829
0.0004422142
0.0002126005
0.0001860504
0.0001615297
0.0001396358
0.0001205216
0.0001040549
8.995425e-05
7.789681e-05
6.758942e-05
5.880066e-05
5.137793e-05
4.530167e-05
4.039211e-05
3.645637e-05
3.331424e-05
3.086375e-05
2.907356e-05
2.792808e-05
2.736037e-05
2.720673e-05
0.0002325217
0.0002066248
0.000183098
0.0001620018
0.0001431453
0.000126231
0.0001109766
9.715359e-05
8.463776e-05
7.338519e-05
6.350151e-05
5.506015e-05
4.805493e-05
4.243982e-05
3.825594e-05
3.526816e-05
3.325199e-05
3.201535e-05
3.138602e-05
3.118306e-05
0.0002582313
0.0002336359
0.0002120865
0.0001916637
0.0001716547
0.0001518638
0.0001321028
0.0001121729
9.189881e-05
7.145449e-05
5.36535e-05
3.895183e-05
2.733157e-05
1.846257e-05
1.189943e-05
7.288508e-06
4.231113e-06
2.289997e-06
1.092816e-06
3.924665e-07
0.0002518021
0.0002268753
0.0002041586
0.0001811847
0.0001566647
0.0001302747
0.0001037639
7.837784e-05
5.5536e-05
3.651591e-05
2.211626e-05
1.23466e-05
6.401055e-06
3.096142e-06
1.381908e-06
5.689782e-07
2.178021e-07
7.769904e-08
2.51427e-08
6.900852e-09
0.0002275102
0.0002010852
0.0001742768
0.0001466742
0.0001188047
9.150897e-05
6.612926e-05
4.41588e-05
2.681205e-05
1.456573e-05
6.956657e-06
2.903245e-06
1.07007e-06
3.554424e-07
1.088239e-07
3.145319e-08
8.894141e-09
2.583598e-09
7.700013e-10
2.274252e-10
0.0002345994
0.0002090921
0.0001847067
0.0001593482
0.0001325964
0.0001044876
7.697326e-05
5.296406e-05
3.407805e-05
2.086112e-05
1.266107e-05
8.054447e-06
5.566617e-06
4.138511e-06
3.171993e-06
2.389135e-06
1.702883e-06
1.102623e-06
6.048251e-07
2.363561e-07
0.000218972
0.0001935132
0.0001713413
0.0001525872
0.0001368782
0.0001237031
0.0001125869
0.0001031425
9.506821e-05
8.819389e-05
8.243211e-05
7.771572e-05
7.396076e-05
7.10308e-05
6.87293e-05
6.68412e-05
6.520881e-05
6.379911e-05
6.274354e-05
6.223454e-05
0.0002147066
0.0001893961
0.0001674875
0.0001489708
0.0001333665
0.0001201765
0.0001090058
9.951173e-05
9.14099e-05
8.445095e-05
7.843044e-05
7.317085e-05
6.852118e-05
6.435159e-05
6.059654e-05
5.728979e-05
5.455124e-05
5.252503e-05
5.130038e-05
5.083741e-05
0.0002305981
0.000206437
0.0001858522
0.0001668744
0.0001464365
0.0001240545
9.967956e-05
7.608928e-05
5.584762e-05
3.988852e-05
2.805629e-05
1.950169e-05
1.344138e-05
9.225058e-06
6.30679e-06
4.250202e-06
2.763399e-06
1.672833e-06
8.798459e-07
3.355977e-07
0.0002070268
0.0001808858
0.0001551075
0.0001286209
0.0001021871
7.671693e-05
5.356061e-05
3.434048e-05
2.018808e-05
1.100899e-05
5.675369e-06
2.795862e-06
1.334096e-06
6.258943e-07
2.917107e-07
1.345442e-07
6.011084e-08
2.498808e-08
9.079633e-09
2.6287e-09
0.0001811358
0.0001538396
0.0001263617
9.952656e-05
7.427999e-05
5.182555e-05
3.333613e-05
1.957942e-05
1.04889e-05
5.16387e-06
2.38519e-06
1.070169e-06
4.852674e-07
2.281637e-07
1.107699e-07
5.390334e-08
2.519066e-08
1.078126e-08
3.972635e-09
1.140062e-09
0.0002215926
0.0001971819
0.000175743
0.0001547264
0.0001319053
0.0001069349
8.052491e-05
5.691613e-05
3.811342e-05
2.470493e-05
1.597966e-05
1.064128e-05
7.420394e-06
5.380482e-06
3.957264e-06
2.863371e-06
1.977242e-06
1.254646e-06
6.845855e-07
2.694977e-07
0.0002043756
0.0001790376
0.0001571588
0.0001387625
0.0001234037
0.0001105719
9.979285e-05
9.06882e-05
8.298776e-05
7.651149e-05
7.113954e-05
6.67632e-05
6.322973e-05
6.035078e-05
5.791775e-05
5.576616e-05
5.385147e-05
5.225627e-05
5.114606e-05
5.065598e-05
0.0002019791
0.0001766816
0.0001548898
0.0001365938
0.0001213272
0.0001085857
9.790854e-05
8.891978e-05
8.133147e-05
7.492806e-05
6.954085e-05
6.501042e-05
6.114251e-05
5.774603e-05
5.467463e-05
5.189864e-05
4.950116e-05
4.763145e-05
4.643389e-05
4.595283e-05
0.0002170925
0.0001927776
0.0001716084
0.0001514008
0.0001294147
0.0001053299
8.012885e-05
5.776364e-05
3.994523e-05
2.706241e-05
1.829282e-05
1.251731e-05
8.73934e-06
6.209531e-06
4.43134e-06
3.111833e-06
2.096488e-06
1.30764e-06
7.069527e-07
2.787891e-07
0.0001807499
0.0001537135
0.0001266731
0.000100232
7.522696e-05
5.27528e-05
3.408652e-05
2.019361e-05
1.105175e-05
5.693918e-06
2.809254e-06
1.356201e-06
6.541783e-07
3.193129e-07
1.572838e-07
7.673286e-08
3.592738e-08
1.549704e-08
5.805384e-09
1.712974e-09
0.0001781422
0.0001510138
0.0001238635