/*--------------------------------*- C++ -*----------------------------------*\
| =========                 |                                                 |
| \\      /  F ield         | OpenFOAM: The Open Source CFD Toolbox           |
|  \\    /   O peration     | Version:  4.0                                   |
|   \\  /    A nd           | Web:      www.OpenFOAM.org                      |
|    \\/     M anipulation  |                                                 |
\*---------------------------------------------------------------------------*/
FoamFile
{
    version     2.0;
    format      ascii;
    class       volScalarField;
    location    "120/fuel";
    object      YCH3OHfuel;
}
// * * * * * * * * * * * * * * * * * * * * * * * * * * * * * * * * * * * * * //

dimensions      [0 0 0 0 0 0 0];

internalField   nonuniform List<scalar> 
39776
(
0.8968951
0.8969236
0.8982356
0.8982647
0.8990903
0.8991202
0.8991711
0.8992011
0.8991614
0.8991914
0.8990975
0.8991274
0.8983911
0.8984203
0.8984362
0.8984654
0.8991037
0.8991335
0.8991641
0.8991941
0.8991651
0.899195
0.8991038
0.8991335
0.8984252
0.8984542
0.8984318
0.8984609
0.8991046
0.8991344
0.8991663
0.8991961
0.899166
0.8991958
0.899105
0.8991347
0.89843
0.8984591
0.8984324
0.8984615
0.8991054
0.8991351
0.8991662
0.899196
0.8991662
0.899196
0.8991054
0.8991352
0.8984324
0.8984614
0.8984288
0.8984579
0.8991042
0.899134
0.8991652
0.8991951
0.8991656
0.8991954
0.8991047
0.8991344
0.8984291
0.8984582
0.8984219
0.898451
0.8991019
0.8991317
0.8991634
0.8991933
0.899165
0.8991949
0.8991048
0.8991346
0.8984382
0.8984674
0.8983929
0.898422
0.8990986
0.8991285
0.8991641
0.899194
0.8991758
0.8992057
0.8990959
0.8991256
0.8982465
0.8982754
0.8969142
0.8969425
0.8973181
0.8973466
0.8982322
0.8982611
0.8989254
0.8989549
0.8990114
0.899041
0.8989988
0.8990284
0.8989071
0.8989366
0.8982249
0.8982538
0.898281
0.8983099
0.8989184
0.8989479
0.8990002
0.8990297
0.8989989
0.8990285
0.8989126
0.8989421
0.8982541
0.898283
0.8982653
0.8982943
0.8989148
0.8989443
0.8989989
0.8990285
0.8989968
0.8990265
0.8989118
0.8989414
0.8982561
0.8982851
0.89826
0.898289
0.8989125
0.8989421
0.898997
0.8990266
0.898997
0.8990267
0.8989126
0.8989422
0.89826
0.898289
0.8982559
0.898285
0.8989132
0.8989427
0.8989983
0.8990279
0.8989987
0.8990283
0.8989147
0.8989442
0.8982646
0.8982936
0.8982539
0.8982828
0.8989126
0.8989421
0.8989985
0.899028
0.8990004
0.89903
0.8989189
0.8989483
0.8982819
0.8983108
0.8982256
0.8982545
0.8989075
0.898937
0.8989997
0.8990293
0.8990129
0.8990425
0.8989269
0.8989564
0.8982354
0.8982644
0.8973244
0.8973528
0.8970591
0.8970874
0.8979474
0.8979761
0.8987417
0.8987711
0.8988644
0.8988939
0.8988486
0.8988781
0.8987155
0.8987448
0.8979814
0.8980102
0.8980358
0.8980646
0.8987319
0.8987613
0.8988511
0.8988806
0.8988489
0.8988784
0.8987233
0.8987526
0.8980084
0.8980372
0.8980253
0.8980541
0.8987295
0.8987589
0.8988515
0.8988809
0.8988504
0.8988798
0.8987269
0.8987562
0.8980148
0.8980436
0.8980204
0.8980491
0.8987283
0.8987576
0.8988513
0.8988807
0.8988513
0.8988807
0.8987285
0.8987578
0.8980204
0.8980491
0.8980147
0.8980434
0.8987271
0.8987564
0.8988507
0.8988801
0.8988514
0.8988809
0.8987296
0.8987589
0.8980249
0.8980536
0.8980078
0.8980366
0.8987229
0.8987523
0.8988486
0.8988781
0.8988512
0.8988807
0.8987323
0.8987617
0.8980364
0.8980653
0.8979819
0.8980107
0.8987157
0.8987451
0.8988491
0.8988786
0.8988654
0.8988949
0.8987432
0.8987726
0.8979506
0.8979793
0.897064
0.8970924
0.8966685
0.8966967
0.8975362
0.8975647
0.8985336
0.8985628
0.8987194
0.8987487
0.8987046
0.8987339
0.8985111
0.8985402
0.8977134
0.897742
0.8977538
0.8977824
0.8985393
0.8985684
0.8987097
0.898739
0.8987058
0.898735
0.8985217
0.8985508
0.8977341
0.8977627
0.8977465
0.8977752
0.8985327
0.8985619
0.8987078
0.8987371
0.898706
0.8987353
0.8985249
0.8985541
0.8977357
0.8977644
0.89774
0.8977687
0.8985274
0.8985566
0.8987052
0.8987345
0.8987052
0.8987346
0.8985275
0.8985567
0.89774
0.8977687
0.8977355
0.8977642
0.8985232
0.8985524
0.8987044
0.8987337
0.8987078
0.898737
0.8985328
0.8985619
0.8977462
0.8977748
0.8977326
0.8977612
0.8985206
0.8985497
0.8987055
0.8987347
0.8987098
0.8987391
0.8985397
0.8985688
0.8977544
0.897783
0.8977138
0.8977423
0.8985113
0.8985404
0.8987051
0.8987343
0.8987203
0.8987496
0.8985358
0.8985649
0.8975402
0.8975687
0.896673
0.8967011
0.8962711
0.8962991
0.8971414
0.8971698
0.8983329
0.8983619
0.8985865
0.8986157
0.8985739
0.8986032
0.898335
0.8983641
0.8974459
0.8974744
0.8974757
0.8975043
0.8983648
0.8983939
0.8985803
0.8986096
0.8985749
0.8986042
0.8983434
0.8983724
0.8974621
0.8974907
0.8974728
0.8975014
0.898362
0.898391
0.8985808
0.8986099
0.8985779
0.8986071
0.8983502
0.8983792
0.8974674
0.8974959
0.8974719
0.8975004
0.8983578
0.8983868
0.8985798
0.898609
0.8985799
0.898609
0.898358
0.898387
0.897472
0.8975005
0.897468
0.8974965
0.8983503
0.8983793
0.8985781
0.8986072
0.8985814
0.8986105
0.898362
0.898391
0.8974746
0.8975031
0.8974634
0.8974919
0.8983444
0.8983734
0.8985762
0.8986054
0.8985797
0.898609
0.8983643
0.8983934
0.8974751
0.8975037
0.8974449
0.8974735
0.8983341
0.8983632
0.8985719
0.8986012
0.8985832
0.8986125
0.8983302
0.8983593
0.8971392
0.8971677
0.8962689
0.8962971
0.8958668
0.8958949
0.8967429
0.8967713
0.8981076
0.8981366
0.898455
0.8984843
0.8984529
0.8984821
0.8981661
0.8981951
0.897193
0.8972215
0.8972149
0.8972434
0.8981913
0.8982203
0.8984614
0.8984906
0.8984567
0.8984858
0.8981708
0.8981997
0.8972077
0.8972361
0.8972177
0.8972461
0.8981957
0.8982246
0.8984646
0.8984937
0.8984607
0.8984898
0.8981812
0.8982101
0.8972129
0.8972413
0.8972163
0.8972446
0.8981883
0.8982172
0.8984625
0.8984916
0.8984626
0.8984917
0.8981885
0.8982174
0.8972164
0.8972448
0.8972122
0.8972406
0.8981804
0.8982094
0.89846
0.8984891
0.8984643
0.8984934
0.898196
0.8982249
0.8972167
0.8972451
0.8972062
0.8972346
0.8981695
0.8981984
0.8984557
0.8984849
0.8984621
0.8984913
0.8981923
0.8982212
0.897216
0.8972445
0.8971938
0.8972223
0.8981668
0.8981958
0.8984547
0.8984838
0.8984583
0.8984874
0.8981118
0.8981407
0.8967491
0.8967773
0.8958735
0.8959014
0.8954658
0.8954936
0.8963765
0.8964046
0.8979183
0.8979471
0.8983436
0.8983726
0.8983497
0.8983787
0.8980199
0.8980487
0.8969573
0.8969856
0.8969749
0.8970032
0.8980513
0.8980801
0.8983606
0.8983897
0.898353
0.898382
0.8980246
0.8980534
0.8969668
0.8969951
0.8969767
0.897005
0.8980533
0.8980821
0.8983615
0.8983905
0.8983555
0.8983846
0.8980356
0.8980644
0.8969698
0.8969981
0.8969723
0.8970007
0.8980402
0.8980691
0.8983568
0.8983859
0.8983569
0.8983859
0.8980404
0.8980693
0.8969725
0.8970008
0.8969696
0.8969979
0.8980366
0.8980655
0.8983567
0.8983857
0.8983616
0.8983906
0.8980535
0.8980823
0.8969766
0.8970049
0.8969669
0.8969952
0.8980246
0.8980535
0.8983528
0.8983818
0.8983609
0.8983899
0.8980518
0.8980806
0.8969756
0.8970038
0.8969577
0.8969859
0.8980201
0.8980489
0.8983503
0.8983793
0.8983449
0.8983739
0.89792
0.8979487
0.8963797
0.8964078
0.89547
0.8954978
0.8950654
0.8950931
0.8960294
0.8960574
0.8977436
0.8977723
0.8982383
0.8982673
0.8982523
0.8982814
0.8978853
0.8979141
0.896734
0.8967623
0.8967502
0.8967785
0.8979266
0.8979554
0.898268
0.898297
0.898259
0.8982881
0.8978961
0.8979249
0.8967446
0.8967728
0.8967544
0.8967826
0.8979262
0.8979549
0.8982698
0.8982988
0.8982648
0.8982938
0.8979115
0.8979403
0.8967498
0.896778
0.8967513
0.8967795
0.8979124
0.8979412
0.8982656
0.8982945
0.8982657
0.8982946
0.8979127
0.8979414
0.8967515
0.8967797
0.8967496
0.8967778
0.8979116
0.8979403
0.898265
0.898294
0.8982699
0.8982989
0.8979264
0.8979551
0.8967544
0.8967826
0.8967443
0.8967725
0.8978958
0.8979246
0.8982588
0.8982879
0.8982682
0.8982972
0.8979271
0.8979559
0.8967508
0.8967791
0.8967343
0.8967625
0.8978853
0.8979141
0.8982527
0.8982818
0.8982393
0.8982683
0.8977454
0.8977742
0.8960329
0.8960609
0.8950693
0.8950971
0.8946753
0.8947029
0.8957106
0.8957385
0.8975962
0.8976248
0.8981475
0.8981763
0.8981683
0.8981972
0.8977712
0.8977998
0.8965344
0.8965625
0.8965505
0.8965786
0.8978182
0.8978469
0.8981881
0.898217
0.898178
0.8982069
0.8977828
0.8978115
0.8965435
0.8965716
0.896553
0.8965811
0.8978166
0.8978453
0.8981886
0.8982176
0.8981836
0.8982125
0.8978009
0.8978296
0.8965462
0.8965744
0.8965465
0.8965747
0.8977971
0.8978258
0.8981813
0.8982103
0.8981814
0.8982104
0.8977973
0.897826
0.8965467
0.8965749
0.8965459
0.8965741
0.8977994
0.8978281
0.8981822
0.8982112
0.8981887
0.8982176
0.8978168
0.8978455
0.896553
0.8965811
0.8965424
0.8965705
0.8977819
0.8978106
0.8981778
0.8982067
0.8981883
0.8982172
0.8978188
0.8978474
0.896551
0.8965791
0.8965345
0.8965626
0.8977711
0.8977997
0.8981687
0.8981976
0.8981484
0.8981773
0.8975987
0.8976273
0.8957148
0.8957426
0.894679
0.8947066
0.8943026
0.8943301
0.8954156
0.8954434
0.8974614
0.89749
0.8980631
0.898092
0.8980893
0.8981183
0.8976668
0.8976954
0.8963503
0.8963785
0.8963661
0.8963943
0.8977132
0.8977419
0.8981114
0.8981403
0.8981011
0.89813
0.8976775
0.8977062
0.8963593
0.8963874
0.8963698
0.8963979
0.897715
0.8977437
0.8981145
0.8981433
0.8981095
0.8981383
0.8976976
0.8977262
0.8963661
0.8963942
0.8963671
0.8963952
0.8976988
0.8977275
0.8981088
0.8981376
0.8981089
0.8981377
0.8976991
0.8977277
0.8963673
0.8963954
0.8963665
0.8963946
0.8976976
0.8977262
0.8981096
0.8981384
0.898115
0.8981439
0.897715
0.8977437
0.8963714
0.8963995
0.8963604
0.8963885
0.8976785
0.8977071
0.8981022
0.898131
0.898111
0.8981399
0.8977131
0.8977419
0.8963656
0.8963937
0.8963492
0.8963774
0.8976656
0.8976943
0.8980876
0.8981166
0.8980605
0.8980895
0.8974598
0.8974885
0.8954143
0.8954422
0.8943006
0.8943283
0.8939442
0.8939718
0.8951376
0.8951655
0.8973339
0.8973626
0.8979817
0.8980107
0.8980157
0.8980447
0.8975724
0.8976011
0.8961844
0.8962126
0.8961992
0.8962274
0.8976144
0.8976432
0.89804
0.898069
0.8980327
0.8980615
0.8975857
0.8976144
0.8961964
0.8962245
0.8962061
0.8962342
0.8976162
0.8976448
0.8980447
0.8980735
0.8980397
0.8980685
0.8975977
0.8976263
0.8962028
0.8962309
0.8962063
0.8962343
0.8976086
0.8976373
0.898041
0.8980698
0.8980411
0.8980699
0.8976089
0.8976375
0.8962065
0.8962345
0.8962022
0.8962302
0.897597
0.8976256
0.8980391
0.8980679
0.8980444
0.8980732
0.8976164
0.897645
0.8962054
0.8962335
0.8961952
0.8962234
0.8975848
0.8976135
0.898032
0.8980609
0.898041
0.8980699
0.8976158
0.8976445
0.8962007
0.8962288
0.8961854
0.8962136
0.8975732
0.8976018
0.8980178
0.8980467
0.8979852
0.898014
0.8973386
0.8973671
0.8951443
0.895172
0.893951
0.8939786
0.8936175
0.893645
0.8948871
0.8949148
0.8972189
0.8972473
0.8979118
0.8979406
0.8979532
0.8979819
0.8974895
0.8975181
0.8960407
0.8960687
0.8960541
0.896082
0.8975262
0.8975548
0.8979772
0.898006
0.8979707
0.8979995
0.8975064
0.897535
0.8960524
0.8960804
0.8960581
0.8960861
0.8975191
0.8975477
0.8979772
0.898006
0.8979721
0.898001
0.8975029
0.8975316
0.8960533
0.8960813
0.8960581
0.8960862
0.8975212
0.8975498
0.8979755
0.8980044
0.8979756
0.8980045
0.8975215
0.8975501
0.8960583
0.8960864
0.896053
0.8960811
0.8975038
0.8975324
0.8979731
0.8980019
0.8979772
0.898006
0.8975192
0.8975478
0.8960581
0.8960862
0.8960526
0.8960806
0.8975066
0.8975352
0.8979706
0.8979993
0.8979775
0.8980063
0.8975269
0.8975555
0.8960549
0.8960829
0.8960411
0.8960691
0.8974897
0.8975182
0.8979539
0.8979826
0.8979132
0.897942
0.8972207
0.8972492
0.8948907
0.8949184
0.893622
0.8936495
0.8933101
0.8933374
0.8946498
0.8946774
0.8971043
0.8971328
0.8978412
0.89787
0.8978899
0.8979187
0.8974072
0.8974358
0.895907
0.8959351
0.8959192
0.8959473
0.8974421
0.8974707
0.8979154
0.8979442
0.8979107
0.8979395
0.8974318
0.8974604
0.8959341
0.895962
0.8959255
0.8959535
0.8974255
0.897454
0.8979128
0.8979415
0.8979114
0.8979402
0.8974223
0.8974508
0.8959221
0.89595
0.8959268
0.8959548
0.8974387
0.8974672
0.8979156
0.8979443
0.8979157
0.8979444
0.897439
0.8974675
0.8959271
0.895955
0.8959218
0.8959498
0.8974222
0.8974507
0.8979115
0.8979403
0.8979129
0.8979416
0.8974257
0.8974542
0.8959256
0.8959536
0.8959339
0.8959619
0.8974317
0.8974602
0.8979106
0.8979394
0.8979156
0.8979444
0.8974425
0.8974711
0.89592
0.895948
0.8959074
0.8959354
0.8974075
0.8974361
0.8978905
0.8979193
0.8978425
0.8978713
0.8971065
0.897135
0.8946536
0.8946812
0.8933143
0.8933417
0.8930218
0.8930491
0.8944233
0.8944509
0.896991
0.8970194
0.8977746
0.8978033
0.8978318
0.8978605
0.8973324
0.8973609
0.8957896
0.8958175
0.8958007
0.8958286
0.8973645
0.897393
0.8978591
0.8978878
0.8978568
0.8978855
0.8973645
0.897393
0.8958316
0.8958595
0.8958067
0.8958346
0.8973359
0.8973644
0.8978508
0.8978795
0.8978529
0.8978816
0.8973465
0.897375
0.8957998
0.8958278
0.8958037
0.8958316
0.8973569
0.8973855
0.8978554
0.8978842
0.8978555
0.8978843
0.8973572
0.8973858
0.8958039
0.8958319
0.8957995
0.8958275
0.8973451
0.8973736
0.8978517
0.8978804
0.8978508
0.8978796
0.8973361
0.8973646
0.8958067
0.8958347
0.8958307
0.8958586
0.8973636
0.8973921
0.8978566
0.8978853
0.8978592
0.897888
0.8973648
0.8973933
0.8958013
0.8958292
0.8957899
0.8958178
0.8973327
0.8973612
0.8978322
0.8978609
0.8977759
0.8978046
0.8969938
0.8970222
0.8944278
0.8944553
0.8930258
0.8930531
0.892751
0.8927783
0.8942128
0.8942404
0.8968864
0.8969148
0.8977099
0.8977386
0.8977746
0.8978034
0.8972653
0.8972938
0.8956801
0.895708
0.8956885
0.8957165
0.8972856
0.8973142
0.897802
0.8978307
0.8978026
0.8978314
0.8972978
0.8973263
0.8957342
0.8957621
0.8956979
0.8957258
0.8972563
0.8972847
0.8977929
0.8978216
0.8977982
0.8978269
0.8972792
0.8973077
0.8956922
0.8957201
0.8956951
0.895723
0.8972833
0.8973118
0.8978012
0.8978299
0.8978013
0.89783
0.8972837
0.8973122
0.8956953
0.8957232
0.8956925
0.8957204
0.8972791
0.8973075
0.8977983
0.897827
0.8977934
0.8978221
0.8972563
0.8972848
0.8956994
0.8957273
0.8957353
0.8957632
0.8972985
0.897327
0.8978035
0.8978322
0.8978013
0.8978301
0.8972851
0.8973136
0.8956877
0.8957157
0.8956789
0.8957069
0.8972643
0.8972929
0.8977728
0.8978016
0.8977077
0.8977365
0.8968851
0.8969135
0.8942119
0.8942396
0.8927495
0.8927769
0.892488
0.8925154
0.8939983
0.894026
0.8967652
0.8967937
0.8976392
0.897668
0.8977168
0.8977456
0.8972008
0.8972293
0.895584
0.895612
0.8955834
0.8956114
0.897199
0.8972276
0.8977427
0.8977715
0.8977505
0.8977792
0.8972332
0.8972617
0.8956341
0.895662
0.8955976
0.8956255
0.8971778
0.8972062
0.8977362
0.8977649
0.8977448
0.8977735
0.8972124
0.8972409
0.8955927
0.8956205
0.8955922
0.8956201
0.8972038
0.8972322
0.8977446
0.8977733
0.8977447
0.8977734
0.8972042
0.8972326
0.8955925
0.8956204
0.895592
0.8956199
0.8972115
0.89724
0.8977442
0.8977729
0.8977359
0.8977646
0.8971782
0.8972066
0.8955971
0.8956251
0.8956334
0.8956613
0.8972323
0.8972608
0.8977498
0.8977785
0.8977439
0.8977726
0.8972007
0.8972292
0.8955852
0.8956131
0.8955851
0.8956131
0.8972018
0.8972303
0.8977189
0.8977477
0.897643
0.8976717
0.8967703
0.8967986
0.8940056
0.8940331
0.8924956
0.8925228
0.892246
0.8922732
0.8938021
0.8938296
0.8966538
0.8966821
0.8975768
0.8976054
0.8976674
0.8976961
0.8971458
0.8971742
0.8955119
0.8955398
0.8954929
0.8955207
0.8971187
0.8971471
0.8976886
0.8977173
0.8977005
0.8977292
0.8971715
0.8971999
0.8955432
0.8955711
0.8955045
0.8955324
0.8971062
0.8971347
0.8976818
0.8977104
0.8976923
0.897721
0.897149
0.8971775
0.8955001
0.8955281
0.8954945
0.8955225
0.8971259
0.8971544
0.8976879
0.8977166
0.8976881
0.8977168
0.8971264
0.8971549
0.8954948
0.8955227
0.8954997
0.8955276
0.8971496
0.8971781
0.8976931
0.8977218
0.8976818
0.8977105
0.8971064
0.8971348
0.8955048
0.8955326
0.8955439
0.8955718
0.8971717
0.8972001
0.8977004
0.8977291
0.8976891
0.8977178
0.8971197
0.8971481
0.8954938
0.8955216
0.8955121
0.8955399
0.8971461
0.8971745
0.8976682
0.8976969
0.8975785
0.8976071
0.8966563
0.8966845
0.8938064
0.8938339
0.8922511
0.8922783
0.892003
0.8920301
0.8935792
0.8936066
0.8964895
0.8965177
0.8974961
0.8975248
0.8976097
0.8976384
0.8970814
0.8971099
0.8954225
0.8954504
0.8953968
0.8954246
0.8970126
0.897041
0.8976239
0.8976526
0.897644
0.8976726
0.8970917
0.8971201
0.895443
0.8954709
0.8954101
0.8954379
0.8970167
0.8970451
0.8976217
0.8976503
0.8976368
0.8976654
0.897071
0.8970994
0.8954104
0.8954383
0.8954014
0.8954292
0.8970334
0.8970618
0.8976279
0.8976565
0.8976281
0.8976567
0.8970339
0.8970623
0.8954016
0.8954294
0.8954101
0.8954379
0.8970708
0.8970992
0.8976368
0.8976654
0.8976217
0.8976504
0.8970168
0.8970452
0.8954104
0.8954382
0.8954432
0.8954711
0.8970916
0.8971201
0.8976439
0.8976726
0.8976244
0.897653
0.8970135
0.8970419
0.8953975
0.8954254
0.8954226
0.8954505
0.8970815
0.89711
0.8976103
0.897639
0.8974977
0.8975263
0.8964921
0.8965204
0.8935837
0.8936111
0.8920078
0.892035
0.8917382
0.8917653
0.8932956
0.893323
0.896235
0.8962631
0.8973928
0.8974213
0.8975439
0.8975725
0.8969914
0.8970197
0.8953261
0.8953539
0.8952942
0.895322
0.8968787
0.896907
0.8975509
0.8975794
0.8975802
0.8976088
0.8969836
0.897012
0.8953384
0.8953662
0.8953071
0.8953349
0.8968981
0.8969265
0.8975523
0.8975809
0.8975708
0.8975994
0.8969584
0.8969867
0.895309
0.8953369
0.8952973
0.8953252
0.8969138
0.8969422
0.897557
0.8975857
0.8975572
0.8975858
0.8969143
0.8969427
0.8952976
0.8953254
0.8953086
0.8953364
0.8969568
0.8969852
0.8975695
0.8975981
0.8975523
0.8975809
0.8968983
0.8969266
0.8953073
0.8953352
0.8953378
0.8953657
0.896983
0.8970113
0.8975801
0.8976087
0.8975512
0.8975798
0.8968795
0.8969078
0.8952948
0.8953226
0.895326
0.8953538
0.8969914
0.8970197
0.8975444
0.897573
0.8973943
0.8974228
0.8962382
0.8962663
0.8933005
0.8933279
0.8917427
0.8917699
0.8914217
0.8914488
0.8929589
0.8929862
0.8959442
0.8959723
0.897266
0.8972945
0.8974629
0.8974916
0.8968736
0.896902
0.8952076
0.8952354
0.8951676
0.8951954
0.8967251
0.8967534
0.8974634
0.897492
0.8975022
0.8975308
0.8968522
0.8968805
0.8952134
0.8952413
0.8951825
0.8952104
0.8967593
0.8967876
0.8974715
0.8975001
0.8974929
0.8975215
0.896824
0.8968523
0.8951908
0.8952186
0.8951783
0.895206
0.8967797
0.8968079
0.8974784
0.897507
0.8974786
0.8975072
0.8967801
0.8968084
0.8951785
0.8952063
0.8951909
0.8952187
0.8968238
0.8968521
0.8974928
0.8975214
0.897472
0.8975005
0.8967594
0.8967877
0.8951841
0.8952119
0.8952145
0.8952423
0.8968528
0.8968812
0.8975029
0.8975315
0.8974626
0.8974912
0.8967245
0.8967529
0.8951664
0.8951943
0.8952058
0.8952337
0.8968722
0.8969006
0.897461
0.8974897
0.8972638
0.8972924
0.895943
0.8959712
0.8929578
0.8929853
0.89142
0.8914472
0.8909287
0.8909559
0.8922801
0.8923075
0.8951164
0.8951444
0.8970235
0.8970521
0.8972907
0.8973194
0.8965375
0.8965658
0.8950035
0.8950314
0.8949472
0.894975
0.896328
0.8963563
0.8972973
0.8973259
0.8973437
0.8973723
0.8964919
0.8965201
0.8950019
0.8950297
0.8949688
0.8949966
0.8963896
0.8964178
0.897312
0.8973405
0.8973342
0.8973627
0.8964573
0.8964854
0.8949805
0.8950083
0.8949666
0.8949944
0.8964138
0.8964419
0.8973192
0.8973477
0.8973194
0.8973479
0.8964142
0.8964423
0.8949669
0.8949947
0.8949798
0.8950075
0.8964564
0.8964846
0.8973335
0.8973621
0.8973118
0.8973403
0.8963903
0.8964185
0.8949684
0.8949962
0.895001
0.8950288
0.8964909
0.8965192
0.8973431
0.8973717
0.8972988
0.8973274
0.89633
0.8963582
0.8949494
0.8949772
0.8950052
0.895033
0.8965388
0.8965671
0.8972933
0.8973219
0.8970281
0.8970565
0.8951231
0.8951509
0.892289
0.8923162
0.8909378
0.8909648
0.8901181
0.890145
0.8912529
0.89128
0.8938381
0.8938656
0.8964711
0.8964993
0.8968684
0.8968968
0.8959128
0.8959408
0.8945816
0.8946093
0.8945113
0.8945389
0.895686
0.8957139
0.8968854
0.8969138
0.8969391
0.8969675
0.8958567
0.8958847
0.8945666
0.8945942
0.8945334
0.8945611
0.8957631
0.895791
0.8969046
0.896933
0.8969263
0.8969547
0.8958204
0.8958484
0.8945426
0.8945703
0.8945298
0.8945575
0.8957859
0.895814
0.8969111
0.8969395
0.8969113
0.8969397
0.8957863
0.8958143
0.89453
0.8945578
0.8945424
0.8945701
0.8958214
0.8958494
0.8969274
0.8969558
0.8969048
0.8969332
0.8957637
0.8957917
0.8945338
0.8945615
0.8945671
0.8945947
0.8958568
0.8958848
0.896939
0.8969674
0.8968861
0.8969145
0.8956871
0.8957151
0.8945125
0.8945401
0.8945824
0.89461
0.8959134
0.8959414
0.8968696
0.896898
0.8964737
0.8965019
0.8938425
0.89387
0.8912586
0.8912857
0.8901243
0.8901513
0.8969776
0.8970546
0.8971281
0.8971979
0.8972633
0.8973241
0.89738
0.8974308
0.8974765
0.8975171
0.8975526
0.8975833
0.8976094
0.8976311
0.8976487
0.8976627
0.8976734
0.897681
0.8976858
0.8976882
0.8983201
0.8984012
0.89848
0.8985553
0.8986259
0.8986911
0.8987501
0.8988025
0.8988481
0.8988868
0.8989188
0.8989443
0.898964
0.8989783
0.8989881
0.8989941
0.8989972
0.8989982
0.898998
0.8989975
0.8991771
0.899262
0.899347
0.8994309
0.8995123
0.8995895
0.8996609
0.8997253
0.8997816
0.8998296
0.8998693
0.8999011
0.8999261
0.8999453
0.8999598
0.8999706
0.8999788
0.899985
0.8999898
0.8999936
0.8992582
0.8993422
0.8994254
0.8995066
0.8995845
0.8996574
0.899724
0.899783
0.8998339
0.8998762
0.8999102
0.8999367
0.8999567
0.8999711
0.8999813
0.8999882
0.8999928
0.8999957
0.8999975
0.8999986
0.8992484
0.8993324
0.8994155
0.8994966
0.8995746
0.8996478
0.8997149
0.8997747
0.8998264
0.8998698
0.899905
0.8999326
0.8999535
0.8999688
0.8999796
0.8999871
0.899992
0.8999952
0.8999972
0.8999984
0.8991841
0.8992686
0.8993532
0.8994366
0.8995175
0.8995943
0.8996654
0.8997295
0.8997857
0.8998335
0.8998729
0.8999046
0.8999294
0.8999483
0.8999625
0.899973
0.8999808
0.8999865
0.8999909
0.8999943
0.8984757
0.8985553
0.8986319
0.8987048
0.8987733
0.8988368
0.898895
0.8989477
0.8989946
0.8990358
0.8990713
0.8991013
0.8991261
0.8991461
0.8991618
0.8991735
0.8991818
0.8991873
0.8991905
0.8991918
0.8985208
0.8986007
0.8986777
0.898751
0.8988199
0.8988839
0.8989424
0.8989954
0.8990425
0.8990837
0.8991191
0.899149
0.8991735
0.8991932
0.8992084
0.8992198
0.8992277
0.8992328
0.8992356
0.8992368
0.8991903
0.8992747
0.8993592
0.8994424
0.899523
0.8995994
0.8996701
0.8997337
0.8997894
0.8998367
0.8998757
0.899907
0.8999314
0.89995
0.8999638
0.8999741
0.8999816
0.8999872
0.8999914
0.8999946
0.899251
0.8993348
0.8994177
0.8994987
0.8995765
0.8996495
0.8997164
0.8997761
0.8998276
0.8998708
0.8999058
0.8999332
0.899954
0.8999692
0.8999799
0.8999873
0.8999922
0.8999953
0.8999972
0.8999984
0.8992517
0.8993352
0.8994179
0.8994987
0.8995762
0.8996491
0.8997159
0.8997755
0.899827
0.8998702
0.8999053
0.8999328
0.8999536
0.8999689
0.8999797
0.8999871
0.8999921
0.8999952
0.8999972
0.8999984
0.8991901
0.8992743
0.8993585
0.8994416
0.899522
0.8995983
0.8996689
0.8997326
0.8997883
0.8998357
0.8998748
0.8999062
0.8999307
0.8999494
0.8999634
0.8999737
0.8999813
0.8999869
0.8999912
0.8999945
0.8985095
0.898589
0.8986656
0.8987384
0.8988069
0.8988705
0.8989288
0.8989815
0.8990284
0.8990696
0.899105
0.8991349
0.8991595
0.8991794
0.8991948
0.8992063
0.8992144
0.8992197
0.8992227
0.899224
0.8985162
0.8985957
0.8986724
0.8987453
0.8988138
0.8988775
0.8989358
0.8989885
0.8990355
0.8990766
0.899112
0.8991418
0.8991665
0.8991862
0.8992016
0.899213
0.8992211
0.8992263
0.8992292
0.8992305
0.899191
0.8992752
0.8993593
0.8994424
0.8995228
0.899599
0.8996696
0.8997331
0.8997888
0.8998361
0.8998752
0.8999065
0.899931
0.8999496
0.8999635
0.8999738
0.8999814
0.899987
0.8999912
0.8999945
0.8992527
0.8993361
0.8994187
0.8994994
0.8995769
0.8996497
0.8997164
0.8997759
0.8998273
0.8998705
0.8999055
0.8999329
0.8999537
0.899969
0.8999798
0.8999872
0.8999921
0.8999952
0.8999972
0.8999984
0.8992524
0.8993358
0.8994184
0.8994991
0.8995766
0.8996494
0.8997161
0.8997756
0.8998271
0.8998703
0.8999053
0.8999328
0.8999536
0.8999689
0.8999797
0.8999871
0.8999921
0.8999952
0.8999972
0.8999984
0.8991913
0.8992754
0.8993594
0.8994424
0.8995227
0.8995989
0.8996694
0.899733
0.8997886
0.899836
0.899875
0.8999064
0.8999308
0.8999495
0.8999635
0.8999738
0.8999814
0.899987
0.8999912
0.8999945
0.8985143
0.8985937
0.8986702
0.898743
0.8988115
0.898875
0.8989333
0.8989859
0.8990328
0.8990739
0.8991093
0.8991392
0.8991638
0.8991836
0.899199
0.8992105
0.8992186
0.8992238
0.8992268
0.899228
0.8985167
0.8985961
0.8986727
0.8987455
0.898814
0.8988775
0.8989358
0.8989884
0.8990353
0.8990764
0.8991118
0.8991416
0.8991663
0.899186
0.8992014
0.8992128
0.8992209
0.8992261
0.8992291
0.8992303
0.8991916
0.8992757
0.8993598
0.8994427
0.899523
0.8995992
0.8996697
0.8997332
0.8997889
0.8998362
0.8998752
0.8999065
0.899931
0.8999496
0.8999635
0.8999738
0.8999814
0.899987
0.8999912
0.8999945
0.8992527
0.8993361
0.8994186
0.8994993
0.8995768
0.8996496
0.8997163
0.8997758
0.8998273
0.8998704
0.8999054
0.8999329
0.8999537
0.899969
0.8999798
0.8999872
0.8999921
0.8999952
0.8999972
0.8999984
0.8992527
0.8993361
0.8994186
0.8994993
0.8995768
0.8996496
0.8997163
0.8997758
0.8998273
0.8998704
0.8999054
0.8999329
0.8999537
0.899969
0.8999798
0.8999872
0.8999921
0.8999952
0.8999972
0.8999984
0.8991917
0.8992758
0.8993598
0.8994427
0.8995231
0.8995992
0.8996697
0.8997332
0.8997889
0.8998362
0.8998752
0.8999065
0.899931
0.8999496
0.8999635
0.8999738
0.8999814
0.899987
0.8999912
0.8999945
0.8985166
0.8985961
0.8986726
0.8987454
0.8988139
0.8988775
0.8989357
0.8989884
0.8990353
0.8990764
0.8991117
0.8991416
0.8991662
0.8991859
0.8992013
0.8992128
0.8992208
0.899226
0.899229
0.8992302
0.8985131
0.8985926
0.8986692
0.8987421
0.8988106
0.8988742
0.8989325
0.8989852
0.8990321
0.8990732
0.8991087
0.8991386
0.8991632
0.899183
0.8991984
0.8992099
0.899218
0.8992233
0.8992263
0.8992275
0.8991905
0.8992747
0.8993589
0.8994419
0.8995223
0.8995986
0.8996692
0.8997328
0.8997885
0.8998358
0.8998749
0.8999063
0.8999308
0.8999495
0.8999634
0.8999737
0.8999813
0.899987
0.8999912
0.8999945
0.8992518
0.8993353
0.8994179
0.8994987
0.8995762
0.8996491
0.8997159
0.8997754
0.899827
0.8998702
0.8999053
0.8999328
0.8999536
0.8999689
0.8999797
0.8999871
0.8999921
0.8999952
0.8999972
0.8999984
0.8992521
0.8993356
0.8994182
0.899499
0.8995765
0.8996494
0.8997161
0.8997757
0.8998272
0.8998704
0.8999054
0.8999329
0.8999537
0.899969
0.8999798
0.8999872
0.8999921
0.8999952
0.8999972
0.8999984
0.899191
0.8992751
0.8993593
0.8994423
0.8995227
0.8995989
0.8996695
0.8997331
0.8997887
0.8998361
0.8998751
0.8999065
0.8999309
0.8999496
0.8999635
0.8999738
0.8999814
0.899987
0.8999912
0.8999945
0.8985136
0.8985933
0.8986701
0.8987432
0.8988119
0.8988757
0.8989341
0.8989869
0.8990339
0.8990751
0.8991106
0.8991405
0.8991651
0.8991849
0.8992003
0.8992118
0.8992198
0.8992251
0.899228
0.8992292
0.8985064
0.8985861
0.8986628
0.8987359
0.8988045
0.8988682
0.8989266
0.8989794
0.8990265
0.8990677
0.8991032
0.8991331
0.8991579
0.8991778
0.8991932
0.8992048
0.8992129
0.8992182
0.8992212
0.8992224
0.8991884
0.8992728
0.8993571
0.8994404
0.899521
0.8995975
0.8996682
0.899732
0.8997879
0.8998353
0.8998746
0.899906
0.8999306
0.8999493
0.8999633
0.8999736
0.8999813
0.8999869
0.8999912
0.8999945
0.8992502
0.8993339
0.8994167
0.8994977
0.8995754
0.8996484
0.8997153
0.899775
0.8998267
0.89987
0.8999051
0.8999327
0.8999536
0.8999689
0.8999797
0.8999871
0.899992
0.8999952
0.8999972
0.8999984
0.8992517
0.8993354
0.8994183
0.8994992
0.8995769
0.8996499
0.8997167
0.8997763
0.8998278
0.8998709
0.8999059
0.8999333
0.899954
0.8999692
0.8999799
0.8999873
0.8999922
0.8999953
0.8999973
0.8999984
0.8991913
0.8992757
0.89936
0.8994431
0.8995236
0.8995999
0.8996705
0.899734
0.8997897
0.8998369
0.8998759
0.8999071
0.8999315
0.89995
0.8999639
0.8999741
0.8999816
0.8999872
0.8999914
0.8999946
0.8985227
0.8986025
0.8986794
0.8987526
0.8988214
0.8988853
0.8989438
0.8989967
0.8990437
0.8990849
0.8991203
0.8991501
0.8991746
0.8991943
0.8992095
0.8992208
0.8992287
0.8992338
0.8992366
0.8992377
0.8984773
0.8985568
0.8986334
0.8987062
0.8987745
0.898838
0.8988962
0.8989488
0.8989956
0.8990367
0.8990722
0.8991022
0.899127
0.899147
0.8991626
0.8991743
0.8991826
0.8991881
0.8991913
0.8991926
0.8991852
0.8992696
0.899354
0.8994374
0.8995181
0.8995948
0.8996658
0.8997298
0.8997859
0.8998337
0.8998731
0.8999048
0.8999295
0.8999484
0.8999626
0.8999731
0.8999808
0.8999865
0.8999909
0.8999943
0.8992508
0.8993345
0.8994173
0.8994982
0.8995759
0.8996489
0.8997157
0.8997754
0.8998269
0.8998702
0.8999053
0.8999328
0.8999536
0.8999689
0.8999797
0.8999871
0.899992
0.8999952
0.8999972
0.8999984
0.8992624
0.899346
0.8994287
0.8995094
0.8995868
0.8996593
0.8997255
0.8997842
0.8998348
0.8998768
0.8999107
0.8999371
0.8999569
0.8999713
0.8999814
0.8999883
0.8999928
0.8999957
0.8999975
0.8999986
0.8991821
0.8992665
0.8993509
0.8994344
0.8995152
0.8995919
0.8996629
0.8997269
0.8997829
0.8998306
0.89987
0.8999017
0.8999266
0.8999456
0.89996
0.8999708
0.8999789
0.8999851
0.8999898
0.8999936
0.8983305
0.898411
0.8984893
0.8985641
0.8986343
0.898699
0.8987577
0.8988098
0.8988551
0.8988935
0.8989253
0.8989507
0.8989702
0.8989845
0.8989942
0.8990002
0.8990032
0.8990042
0.899004
0.8990035
0.8969962
0.8970726
0.8971456
0.8972149
0.8972799
0.8973403
0.8973958
0.8974463
0.8974917
0.897532
0.8975673
0.8975978
0.8976237
0.8976452
0.8976628
0.8976767
0.8976872
0.8976948
0.8976996
0.897702
0.8974006
0.8974785
0.8975539
0.8976262
0.8976948
0.8977592
0.8978191
0.8978741
0.8979239
0.8979685
0.8980077
0.8980416
0.8980703
0.8980939
0.8981128
0.8981273
0.8981378
0.8981448
0.8981489
0.8981505
0.898316
0.8983967
0.8984759
0.8985526
0.8986261
0.8986954
0.89876
0.8988194
0.8988731
0.898921
0.898963
0.898999
0.8990292
0.8990538
0.8990733
0.8990881
0.8990986
0.8991055
0.8991093
0.8991109
0.8990109
0.8990941
0.8991767
0.899258
0.8993369
0.8994125
0.899484
0.8995508
0.8996121
0.8996676
0.8997172
0.8997609
0.8997991
0.8998321
0.8998604
0.8998848
0.8999058
0.8999241
0.8999404
0.8999552
0.8990972
0.8991798
0.8992611
0.8993404
0.8994169
0.8994896
0.8995578
0.8996209
0.8996783
0.8997299
0.8997754
0.899815
0.8998491
0.8998779
0.8999021
0.8999223
0.899939
0.8999529
0.8999644
0.899974
0.8990846
0.8991671
0.8992484
0.8993276
0.899404
0.8994768
0.8995452
0.8996086
0.8996665
0.8997187
0.899765
0.8998054
0.8998403
0.8998701
0.8998952
0.8999163
0.8999339
0.8999485
0.8999608
0.8999712
0.8989926
0.8990756
0.8991581
0.8992392
0.8993179
0.8993935
0.899465
0.8995319
0.8995936
0.8996497
0.8997001
0.8997448
0.899784
0.8998181
0.8998476
0.8998732
0.8998955
0.8999151
0.8999328
0.8999491
0.8983087
0.8983879
0.8984647
0.8985384
0.8986086
0.8986746
0.8987361
0.8987927