/*--------------------------------*- C++ -*----------------------------------*\
| =========                 |                                                 |
| \\      /  F ield         | OpenFOAM: The Open Source CFD Toolbox           |
|  \\    /   O peration     | Version:  4.0                                   |
|   \\  /    A nd           | Web:      www.OpenFOAM.org                      |
|    \\/     M anipulation  |                                                 |
\*---------------------------------------------------------------------------*/
FoamFile
{
    version     2.0;
    format      ascii;
    class       volScalarField;
    location    "120/fuel";
    object      YCH3OHfuel;
}
// * * * * * * * * * * * * * * * * * * * * * * * * * * * * * * * * * * * * * //

dimensions      [0 0 0 0 0 0 0];

internalField   nonuniform List<scalar> 
39776
(
0.8996528
0.899667
0.8996243
0.8996384
0.8995875
0.8996015
0.8995967
0.8996107
0.8996315
0.8996456
0.8996213
0.8996354
0.8996437
0.8996578
0.8996498
0.899664
0.8996271
0.8996412
0.8996608
0.899675
0.8996979
0.8997121
0.89964
0.8996541
0.8996647
0.8996788
0.8996681
0.8996822
0.8996464
0.8996606
0.8996985
0.8997127
0.8997022
0.8997164
0.8996482
0.8996624
0.8996697
0.8996838
0.8996707
0.8996848
0.8996507
0.8996648
0.8997064
0.8997206
0.8997058
0.89972
0.8996505
0.8996646
0.8996706
0.8996848
0.8996698
0.899684
0.8996485
0.8996626
0.8997022
0.8997164
0.8996985
0.8997127
0.8996464
0.8996605
0.8996681
0.8996822
0.8996647
0.8996789
0.89964
0.8996541
0.8996974
0.8997116
0.8996609
0.899675
0.8996271
0.8996412
0.8996499
0.899664
0.8996439
0.899658
0.8996213
0.8996353
0.8996312
0.8996453
0.8995962
0.8996102
0.8995875
0.8996016
0.8996243
0.8996384
0.8996528
0.8996669
0.8996903
0.8997045
0.8997506
0.899765
0.8997951
0.8998096
0.8998052
0.8998197
0.8997902
0.8998046
0.8997849
0.8997993
0.8997205
0.8997348
0.8997603
0.8997747
0.8998092
0.8998237
0.8998071
0.8998216
0.8998061
0.8998205
0.8998074
0.8998219
0.8997497
0.899764
0.8997618
0.8997761
0.8998129
0.8998274
0.8998093
0.8998238
0.8998087
0.8998231
0.8998114
0.8998259
0.899757
0.8997713
0.89976
0.8997744
0.8998126
0.8998271
0.8998093
0.8998238
0.8998092
0.8998237
0.8998125
0.899827
0.8997599
0.8997743
0.8997571
0.8997715
0.8998115
0.899826
0.8998087
0.8998232
0.8998093
0.8998238
0.8998129
0.8998274
0.8997618
0.8997761
0.8997498
0.8997641
0.8998074
0.8998219
0.8998062
0.8998207
0.8998071
0.8998215
0.8998093
0.8998237
0.8997604
0.8997747
0.8997206
0.8997349
0.899785
0.8997994
0.8997902
0.8998046
0.8998052
0.8998196
0.8997951
0.8998095
0.8997505
0.8997648
0.8996902
0.8997044
0.8997187
0.899733
0.899765
0.8997793
0.8998051
0.8998196
0.8997943
0.8998087
0.8997591
0.8997734
0.8997627
0.899777
0.8997186
0.8997328
0.899754
0.8997683
0.8998001
0.8998146
0.8997822
0.8997966
0.8997762
0.8997905
0.899792
0.8998064
0.899736
0.8997503
0.8997509
0.8997652
0.8998008
0.8998152
0.8997801
0.8997945
0.8997779
0.8997923
0.8997972
0.8998117
0.8997437
0.899758
0.899748
0.8997623
0.8997993
0.8998138
0.899779
0.8997934
0.8997789
0.8997933
0.8997993
0.8998137
0.8997479
0.8997622
0.8997439
0.8997582
0.8997973
0.8998118
0.899778
0.8997924
0.8997801
0.8997945
0.8998007
0.8998152
0.8997509
0.8997652
0.899736
0.8997503
0.899792
0.8998064
0.8997761
0.8997905
0.8997823
0.8997967
0.8998001
0.8998146
0.899754
0.8997683
0.8997186
0.8997329
0.8997628
0.8997771
0.8997591
0.8997734
0.8997941
0.8998086
0.899805
0.8998195
0.8997649
0.8997793
0.8997187
0.899733
0.8997188
0.8997331
0.8997561
0.8997705
0.8997974
0.8998119
0.8997811
0.8997955
0.8997333
0.8997476
0.8997398
0.8997541
0.8996989
0.8997131
0.8997379
0.8997522
0.899784
0.8997984
0.8997585
0.8997728
0.89975
0.8997643
0.899772
0.8997864
0.8997181
0.8997324
0.8997334
0.8997477
0.8997826
0.899797
0.8997544
0.8997687
0.8997521
0.8997664
0.8997781
0.8997925
0.8997258
0.8997401
0.8997303
0.8997445
0.8997806
0.899795
0.8997532
0.8997675
0.8997531
0.8997674
0.8997806
0.8997949
0.8997301
0.8997444
0.8997259
0.8997402
0.8997782
0.8997926
0.8997521
0.8997664
0.8997544
0.8997687
0.8997826
0.899797
0.8997334
0.8997477
0.8997182
0.8997324
0.899772
0.8997864
0.8997499
0.8997642
0.8997585
0.8997728
0.899784
0.8997984
0.8997379
0.8997522
0.8996989
0.8997131
0.8997399
0.8997542
0.8997333
0.8997476
0.899781
0.8997954
0.8997974
0.8998118
0.8997561
0.8997704
0.8997188
0.8997331
0.8996981
0.8997123
0.8997417
0.899756
0.8997819
0.8997963
0.8997629
0.8997772
0.8997098
0.899724
0.899713
0.8997273
0.8996855
0.8996997
0.8997226
0.8997368
0.8997649
0.8997793
0.8997364
0.8997507
0.8997253
0.8997395
0.8997467
0.899761
0.8997042
0.8997184
0.8997168
0.899731
0.8997612
0.8997755
0.8997314
0.8997456
0.8997284
0.8997427
0.8997545
0.8997689
0.8997111
0.8997253
0.8997147
0.8997289
0.8997579
0.8997723
0.8997297
0.899744
0.8997296
0.8997439
0.8997579
0.8997722
0.8997146
0.8997288
0.8997112
0.8997254
0.8997546
0.899769
0.8997285
0.8997427
0.8997313
0.8997456
0.8997611
0.8997755
0.8997168
0.899731
0.8997042
0.8997184
0.8997467
0.8997611
0.8997252
0.8997395
0.8997364
0.8997507
0.8997649
0.8997793
0.8997226
0.8997368
0.8996855
0.8996997
0.8997132
0.8997274
0.8997098
0.899724
0.8997627
0.899777
0.8997818
0.8997962
0.8997417
0.899756
0.8996981
0.8997123
0.8996795
0.8996937
0.8997271
0.8997414
0.8997648
0.8997792
0.8997458
0.8997601
0.8996897
0.8997039
0.8996909
0.8997051
0.8996662
0.8996804
0.8997069
0.8997211
0.8997472
0.8997615
0.8997165
0.8997308
0.8997025
0.8997167
0.8997263
0.8997406
0.8996858
0.8997
0.8996995
0.8997137
0.8997423
0.8997566
0.8997101
0.8997244
0.8997066
0.8997208
0.8997348
0.899749
0.8996932
0.8997074
0.8996973
0.8997115
0.8997386
0.8997529
0.8997081
0.8997223
0.899708
0.8997222
0.8997386
0.8997529
0.8996972
0.8997114
0.8996933
0.8997075
0.8997349
0.8997491
0.8997066
0.8997208
0.8997101
0.8997244
0.8997423
0.8997566
0.8996994
0.8997137
0.8996858
0.8997
0.8997263
0.8997406
0.8997025
0.8997167
0.8997166
0.8997308
0.8997472
0.8997615
0.8997069
0.8997211
0.8996662
0.8996804
0.8996911
0.8997053
0.8996897
0.8997039
0.8997457
0.89976
0.8997648
0.8997791
0.8997271
0.8997414
0.8996795
0.8996937
0.8996614
0.8996755
0.899713
0.8997272
0.899747
0.8997613
0.8997298
0.8997441
0.8996723
0.8996864
0.8996701
0.8996842
0.8996477
0.8996618
0.8996923
0.8997065
0.8997295
0.8997438
0.8996985
0.8997128
0.8996817
0.8996959
0.8997073
0.8997216
0.8996674
0.8996815
0.8996836
0.8996977
0.8997239
0.8997381
0.8996907
0.8997049
0.8996864
0.8997006
0.899716
0.8997303
0.899676
0.8996901
0.8996803
0.8996945
0.8997201
0.8997344
0.8996882
0.8997024
0.8996882
0.8997023
0.89972
0.8997343
0.8996802
0.8996944
0.899676
0.8996902
0.8997161
0.8997304
0.8996865
0.8997007
0.8996907
0.8997049
0.8997238
0.8997381
0.8996835
0.8996977
0.8996674
0.8996815
0.8997074
0.8997216
0.8996817
0.8996958
0.8996986
0.8997128
0.8997295
0.8997438
0.8996923
0.8997065
0.8996477
0.8996618
0.8996702
0.8996844
0.8996722
0.8996864
0.8997297
0.899744
0.8997469
0.8997612
0.899713
0.8997273
0.8996614
0.8996755
0.8996429
0.899657
0.8996984
0.8997126
0.8997299
0.8997441
0.8997145
0.8997287
0.899657
0.8996712
0.8996512
0.8996654
0.8996294
0.8996435
0.8996783
0.8996924
0.8997131
0.8997273
0.899682
0.8996962
0.8996627
0.8996769
0.89969
0.8997042
0.8996491
0.8996632
0.8996681
0.8996822
0.899707
0.8997212
0.8996729
0.899687
0.8996681
0.8996822
0.8996992
0.8997134
0.8996584
0.8996726
0.8996636
0.8996777
0.8997033
0.8997175
0.8996701
0.8996843
0.89967
0.8996842
0.8997032
0.8997174
0.8996635
0.8996777
0.8996585
0.8996726
0.8996993
0.8997135
0.8996681
0.8996823
0.8996729
0.899687
0.8997069
0.8997211
0.899668
0.8996822
0.899649
0.8996632
0.8996901
0.8997043
0.8996627
0.8996769
0.899682
0.8996962
0.8997131
0.8997273
0.8996783
0.8996925
0.8996294
0.8996435
0.8996514
0.8996655
0.8996569
0.8996711
0.8997143
0.8997286
0.8997298
0.8997441
0.8996984
0.8997126
0.8996429
0.899657
0.8996243
0.8996383
0.8996835
0.8996976
0.8997137
0.8997279
0.8996996
0.8997139
0.8996431
0.8996572
0.8996349
0.899649
0.8996104
0.8996244
0.8996646
0.8996787
0.8996972
0.8997114
0.8996666
0.8996808
0.8996454
0.8996595
0.8996734
0.8996876
0.8996314
0.8996455
0.8996523
0.8996665
0.8996911
0.8997053
0.8996564
0.8996706
0.8996512
0.8996654
0.8996835
0.8996977
0.899641
0.8996551
0.8996465
0.8996606
0.8996875
0.8997017
0.8996534
0.8996675
0.8996533
0.8996675
0.8996874
0.8997016
0.8996464
0.8996606
0.8996411
0.8996552
0.8996836
0.8996977
0.8996513
0.8996654
0.8996564
0.8996706
0.899691
0.8997052
0.8996523
0.8996664
0.8996314
0.8996455
0.8996735
0.8996876
0.8996454
0.8996595
0.8996666
0.8996808
0.8996972
0.8997114
0.8996646
0.8996788
0.8996104
0.8996245
0.8996351
0.8996492
0.899643
0.8996571
0.8996995
0.8997137
0.8997136
0.8997278
0.8996835
0.8996977
0.8996243
0.8996383
0.8996062
0.8996203
0.8996681
0.8996822
0.8996981
0.8997123
0.8996852
0.8996994
0.8996299
0.899644
0.8996209
0.899635
0.8995927
0.8996068
0.8996494
0.8996635
0.8996818
0.899696
0.8996523
0.8996664
0.8996293
0.8996434
0.8996573
0.8996714
0.8996142
0.8996283
0.8996363
0.8996504
0.8996762
0.8996904
0.8996413
0.8996554
0.8996355
0.8996497
0.8996682
0.8996824
0.8996241
0.8996382
0.8996295
0.8996436
0.8996728
0.899687
0.899638
0.8996521
0.8996379
0.899652
0.8996728
0.8996869
0.8996295
0.8996436
0.8996242
0.8996383
0.8996683
0.8996825
0.8996356
0.8996497
0.8996413
0.8996554
0.8996761
0.8996902
0.8996363
0.8996504
0.8996142
0.8996283
0.8996573
0.8996715
0.8996293
0.8996434
0.8996523
0.8996664
0.8996817
0.8996959
0.8996494
0.8996635
0.8995928
0.8996068
0.899621
0.8996351
0.8996298
0.8996439
0.8996851
0.8996993
0.899698
0.8997122
0.8996681
0.8996822
0.8996062
0.8996203
0.8995885
0.8996025
0.8996525
0.8996666
0.8996829
0.899697
0.8996712
0.8996854
0.8996173
0.8996314
0.8996084
0.8996224
0.8995772
0.8995912
0.8996331
0.8996472
0.8996666
0.8996807
0.8996388
0.8996529
0.8996146
0.8996287
0.8996425
0.8996567
0.8995972
0.8996113
0.8996203
0.8996344
0.8996621
0.8996762
0.8996275
0.8996415
0.8996207
0.8996348
0.8996531
0.8996672
0.8996078
0.8996218
0.8996131
0.8996271
0.8996592
0.8996733
0.8996238
0.8996379
0.8996238
0.8996378
0.8996591
0.8996732
0.899613
0.8996271
0.8996079
0.8996219
0.8996532
0.8996673
0.8996208
0.8996349
0.8996274
0.8996415
0.8996619
0.8996761
0.8996202
0.8996343
0.8995972
0.8996112
0.8996426
0.8996567
0.8996146
0.8996287
0.8996388
0.8996529
0.8996665
0.8996807
0.8996331
0.8996472
0.8995772
0.8995913
0.8996085
0.8996225
0.8996173
0.8996314
0.8996711
0.8996853
0.8996828
0.899697
0.8996526
0.8996667
0.8995885
0.8996026
0.8995712
0.8995852
0.8996367
0.8996508
0.8996677
0.8996819
0.899658
0.8996721
0.8996061
0.8996202
0.8995952
0.8996092
0.899562
0.899576
0.8996171
0.8996311
0.8996516
0.8996657
0.8996256
0.8996397
0.8996011
0.8996152
0.8996294
0.8996435
0.899581
0.8995951
0.8996038
0.8996178
0.8996484
0.8996626
0.8996146
0.8996287
0.8996067
0.8996208
0.8996388
0.8996529
0.8995914
0.8996055
0.899597
0.899611
0.899646
0.8996601
0.8996105
0.8996246
0.8996105
0.8996246
0.8996459
0.89966
0.8995969
0.8996109
0.8995916
0.8996056
0.8996389
0.899653
0.8996068
0.8996209
0.8996146
0.8996286
0.8996482
0.8996623
0.8996037
0.8996177
0.8995811
0.8995951
0.8996295
0.8996436
0.8996011
0.8996152
0.8996256
0.8996397
0.8996516
0.8996657
0.8996171
0.8996312
0.8995619
0.8995759
0.8995952
0.8996093
0.8996061
0.8996201
0.8996579
0.8996721
0.8996677
0.8996818
0.8996366
0.8996507
0.8995712
0.8995852
0.8995541
0.899568
0.8996192
0.8996333
0.8996521
0.8996662
0.8996453
0.8996594
0.8995967
0.8996108
0.8995811
0.8995951
0.8995465
0.8995605
0.8996001
0.8996142
0.8996364
0.8996505
0.8996122
0.8996262
0.8995886
0.8996026
0.8996172
0.8996313
0.8995656
0.8995796
0.899587
0.8996011
0.8996344
0.8996485
0.8996019
0.8996159
0.899594
0.8996081
0.8996264
0.8996405
0.8995753
0.8995893
0.8995811
0.8995952
0.8996323
0.8996464
0.8995979
0.899612
0.899598
0.899612
0.8996322
0.8996463
0.8995811
0.8995951
0.8995754
0.8995894
0.8996265
0.8996406
0.899594
0.8996081
0.8996018
0.8996159
0.8996341
0.8996482
0.8995869
0.8996009
0.8995657
0.8995797
0.8996174
0.8996314
0.8995886
0.8996026
0.8996122
0.8996262
0.8996364
0.8996505
0.8996002
0.8996143
0.8995465
0.8995604
0.8995812
0.8995952
0.8995967
0.8996107
0.8996452
0.8996593
0.899652
0.8996662
0.8996192
0.8996332
0.8995541
0.899568
0.8995367
0.8995507
0.8996002
0.8996142
0.8996364
0.8996505
0.8996329
0.899647
0.8995883
0.8996023
0.8995677
0.8995817
0.8995317
0.8995457
0.8995818
0.8995958
0.8996216
0.8996357
0.899599
0.8996131
0.8995769
0.8995909
0.8996053
0.8996194
0.8995503
0.8995643
0.8995702
0.8995842
0.8996199
0.899634
0.8995891
0.8996031
0.8995825
0.8995965
0.899615
0.8996291
0.8995596
0.8995736
0.8995651
0.8995791
0.8996181
0.8996321
0.8995858
0.8995998
0.8995858
0.8995998
0.899618
0.899632
0.899565
0.899579
0.8995597
0.8995737
0.8996151
0.8996292
0.8995825
0.8995965
0.899589
0.899603
0.8996196
0.8996337
0.89957
0.899584
0.8995504
0.8995644
0.8996055
0.8996196
0.8995769
0.8995909
0.899599
0.8996131
0.8996216
0.8996357
0.8995818
0.8995958
0.8995317
0.8995457
0.8995679
0.8995819
0.8995882
0.8996022
0.8996328
0.8996469
0.8996363
0.8996504
0.8996001
0.8996142
0.8995367
0.8995507
0.8995192
0.8995331
0.8995793
0.8995934
0.8996196
0.8996337
0.8996201
0.8996342
0.8995798
0.8995939
0.8995558
0.8995698
0.899517
0.899531
0.899564
0.899578
0.8996087
0.8996228
0.8995869
0.8996009
0.8995657
0.8995797
0.8995928
0.8996069
0.8995348
0.8995487
0.8995536
0.8995675
0.8996059
0.89962
0.8995767
0.8995908
0.8995713
0.8995853
0.8996036
0.8996176
0.8995442
0.8995582
0.8995488
0.8995628
0.8996032
0.8996172
0.8995738
0.8995878
0.8995739
0.8995879
0.899603
0.899617
0.8995488
0.8995627
0.8995444
0.8995584
0.8996037
0.8996178
0.8995713
0.8995853
0.8995767
0.8995907
0.8996055
0.8996196
0.8995534
0.8995674
0.8995349
0.8995488
0.899593
0.8996071
0.8995657
0.8995797
0.8995869
0.8996009
0.8996086
0.8996227
0.8995639
0.8995779
0.8995171
0.899531
0.899556
0.89957
0.8995797
0.8995937
0.89962
0.8996341
0.8996195
0.8996336
0.8995792
0.8995933
0.8995191
0.899533
0.899501
0.899515
0.8995566
0.8995706
0.8996036
0.8996176
0.8996075
0.8996215
0.8995712
0.8995853
0.8995454
0.8995594
0.8995035
0.8995174
0.8995468
0.8995607
0.8995991
0.8996131
0.8995766
0.8995907
0.8995555
0.8995695
0.8995797
0.8995937
0.8995205
0.8995345
0.8995365
0.8995504
0.8995936
0.8996077
0.8995658
0.8995798
0.8995602
0.8995742
0.8995916
0.8996057
0.8995295
0.8995434
0.8995321
0.899546
0.899589
0.899603
0.8995624
0.8995763
0.8995624
0.8995764
0.8995887
0.8996027
0.899532
0.899546
0.8995298
0.8995438
0.8995919
0.899606
0.8995602
0.8995742
0.8995658
0.8995798
0.8995932
0.8996072
0.8995362
0.8995502
0.8995206
0.8995346
0.8995798
0.8995938
0.8995555
0.8995695
0.8995767
0.8995907
0.899599
0.899613
0.8995467
0.8995607
0.8995035
0.8995175
0.8995457
0.8995597
0.8995711
0.8995852
0.8996074
0.8996215
0.8996035
0.8996176
0.8995567
0.8995707
0.899501
0.899515
0.8994826
0.8994965
0.899533
0.899547
0.8995856
0.8995997
0.8995933
0.8996074
0.8995613
0.8995753
0.8995351
0.8995491
0.899491
0.8995049
0.8995295
0.8995435
0.8995882
0.8996022
0.8995663
0.8995803
0.899545
0.8995589
0.8995667
0.8995807
0.8995065
0.8995205
0.8995196
0.8995335
0.8995805
0.8995945
0.8995551
0.8995691
0.8995482
0.8995622
0.8995795
0.8995936
0.8995144
0.8995284
0.8995156
0.8995295
0.8995735
0.8995875
0.8995503
0.8995643
0.8995502
0.8995642
0.899573
0.899587
0.8995156
0.8995295
0.8995149
0.8995288
0.8995799
0.8995939
0.8995483
0.8995623
0.899555
0.8995689
0.89958
0.899594
0.8995194
0.8995333
0.8995067
0.8995206
0.899567
0.899581
0.8995449
0.8995589
0.8995663
0.8995803
0.899588
0.8996021
0.8995294
0.8995434
0.8994911
0.899505
0.8995353
0.8995493
0.8995612
0.8995752
0.8995932
0.8996073
0.8995856
0.8995996
0.8995331
0.899547
0.8994826
0.8994965
0.8994629
0.8994768
0.8995059
0.8995198
0.899566
0.89958
0.8995789
0.8995929
0.8995503
0.8995643
0.899525
0.8995389
0.8994799
0.8994938
0.8995107
0.8995247
0.8995745
0.8995885
0.8995557
0.8995697
0.8995343
0.8995483
0.8995543
0.8995683
0.8994933
0.8995072
0.8995012
0.8995151
0.8995666
0.8995806
0.8995438
0.8995578
0.8995363
0.8995503
0.8995679
0.8995819
0.8994991
0.899513
0.8994985
0.8995124
0.8995583
0.8995723
0.8995378
0.8995518
0.8995377
0.8995517
0.8995576
0.8995716
0.8994984
0.8995123
0.8994997
0.8995136
0.8995683
0.8995823
0.8995364
0.8995504
0.8995436
0.8995576
0.8995659
0.8995799
0.899501
0.899515
0.8994935
0.8995074
0.8995547
0.8995687
0.8995344
0.8995483
0.8995557
0.8995697
0.8995743
0.8995884
0.8995106
0.8995245
0.89948
0.8994939
0.8995252
0.8995392
0.8995501
0.8995641
0.8995787
0.8995928
0.899566
0.89958
0.8995059
0.8995198
0.8994629
0.8994768
0.8994419
0.8994558
0.8994795
0.8994934
0.8995387
0.8995527
0.8995588
0.8995728
0.8995347
0.8995487
0.8995093
0.8995233
0.8994703
0.8994842
0.8994922
0.8995061
0.8995486
0.8995626
0.8995385
0.8995525
0.8995189
0.8995329
0.8995375
0.8995515
0.8994795
0.8994934
0.8994846
0.8994985
0.899545
0.8995589
0.8995272
0.8995412
0.8995211
0.899535
0.8995512
0.8995652
0.8994822
0.8994961
0.899482
0.8994959
0.8995371
0.8995511
0.899521
0.899535
0.8995209
0.8995348
0.8995364
0.8995503
0.8994819
0.8994958
0.8994828
0.8994967
0.8995517
0.8995657
0.8995212
0.8995352
0.8995271
0.8995411
0.8995442
0.8995582
0.8994845
0.8994984
0.8994797
0.8994936
0.899538
0.8995519
0.8995189
0.8995328
0.8995385
0.8995524
0.8995483
0.8995623
0.8994921
0.899506
0.8994705
0.8994843
0.8995097
0.8995236
0.8995347
0.8995487
0.8995587
0.8995727
0.8995386
0.8995525
0.8994794
0.8994933
0.8994419
0.8994557
0.8994172
0.899431
0.8994456
0.8994594
0.8995006
0.8995145
0.8995318
0.8995458
0.8995115
0.8995255
0.8994869
0.8995008
0.89946
0.8994739
0.8994701
0.899484
0.8995113
0.8995252
0.8995145
0.8995285
0.8994966
0.8995105
0.8995099
0.8995238
0.8994637
0.8994775
0.8994652
0.8994791
0.8995153
0.8995292
0.8995049
0.8995188
0.8995001
0.899514
0.8995224
0.8995363
0.8994633
0.8994772
0.8994618
0.8994757
0.8995101
0.899524
0.8994985
0.8995125
0.8994982
0.8995121
0.8995088
0.8995227
0.8994616
0.8994754
0.8994638
0.8994777
0.8995231
0.899537
0.8995003
0.8995142
0.8995049
0.8995188
0.8995144
0.8995284
0.899465
0.8994789
0.8994639
0.8994778
0.8995106
0.8995245
0.8994967
0.8995106
0.8995147
0.8995286
0.8995107
0.8995246
0.89947
0.8994839
0.8994601
0.899474
0.8994873
0.8995012
0.8995119
0.8995258
0.8995313
0.8995453
0.8995004
0.8995143
0.8994455
0.8994593
0.8994171
0.899431
0.8993865
0.8994003
0.8994068
0.8994207
0.8994546
0.8994685
0.8995001
0.899514
0.8994844
0.8994984
0.8994601
0.899474
0.8994503
0.8994642
0.8994506
0.8994645
0.8994675
0.8994813
0.8994831
0.899497
0.8994696
0.8994835
0.8994798
0.8994937
0.8994494
0.8994633
0.8994478
0.8994616
0.8994788
0.8994927
0.8994763
0.8994902
0.8994718
0.8994857
0.8994842
0.8994981
0.8994448
0.8994586
0.8994454
0.8994593
0.8994815
0.8994954
0.8994715
0.8994854
0.8994713
0.8994851
0.8994805
0.8994944
0.8994451
0.899459
0.8994453
0.8994591
0.8994848
0.8994988
0.899472
0.8994859
0.8994766
0.8994905
0.8994785
0.8994924
0.8994473
0.8994612
0.8994493
0.8994632
0.8994805
0.8994944
0.8994698
0.8994836
0.8994832
0.8994971
0.8994667
0.8994806
0.8994507
0.8994645
0.8994505
0.8994644
0.8994608
0.8994747
0.8994849
0.8994988
0.8994997
0.8995136
0.8994543
0.8994682
0.8994067
0.8994205
0.8993865
0.8994003
0.8993496
0.8993634
0.8993554
0.8993692
0.899359
0.8993728
0.8994308
0.8994447
0.8994176
0.8994314
0.8994042
0.8994181
0.8994335
0.8994474
0.8994259
0.8994398
0.8993947
0.8994085
0.8994119
0.8994257
0.8994054
0.8994193
0.8994151
0.8994289
0.899431
0.8994449
0.8994223
0.8994361
0.8994033
0.8994171
0.8994077
0.8994215
0.8994037
0.8994175
0.8994063
0.8994201
0.8994211
0.899435
0.8994219
0.8994357
0.899408
0.8994218
0.8994046
0.8994185
0.8994043
0.8994181
0.8994074
0.8994212
0.8994217
0.8994355
0.8994215
0.8994353
0.8994068
0.8994206
0.899404
0.8994179
0.8994081
0.8994219
0.8994031
0.8994169
0.8994218
0.8994357
0.8994309
0.8994448
0.8994153
0.8994292
0.8994056
0.8994194
0.8994119
0.8994258
0.8993946
0.8994084
0.8994262
0.8994401
0.8994338
0.8994477
0.8994046
0.8994184
0.8994181
0.899432
0.8994308
0.8994446
0.8993586
0.8993724
0.8993551
0.8993689
0.8993494
0.8993632
0.8996938
0.8997321
0.8997674
0.8997989
0.8998264
0.8998501
0.8998704
0.8998878
0.8999027
0.8999153
0.899926
0.8999348
0.8999418
0.8999475
0.899952
0.8999555
0.8999581
0.8999598
0.8999606
0.8999608
0.8996651
0.8997024
0.8997363
0.8997667
0.8997938
0.8998182
0.8998402
0.8998601
0.8998781
0.8998943
0.8999085
0.8999207
0.8999308
0.8999389
0.8999449
0.8999492
0.8999521
0.8999539
0.8999548
0.8999551
0.8996281
0.8996635
0.8996946
0.899724
0.8997528
0.8997813
0.8998097
0.8998385
0.8998676
0.8998971
0.8999227
0.8999439
0.8999606
0.8999734
0.8999829
0.8999895
0.8999939
0.8999967
0.8999984
0.8999994
0.8996374
0.8996733
0.899706
0.8997391
0.8997744
0.8998124
0.8998506
0.8998871
0.89992
0.8999474
0.8999681
0.8999822
0.8999908
0.8999955
0.899998
0.8999992
0.8999997
0.8999999
0.9
0.9
0.8996724
0.8997104
0.899749
0.8997888
0.8998289
0.8998682
0.8999048
0.8999364
0.8999614
0.899979
0.89999
0.8999958
0.8999985
0.8999995
0.8999998
0.9
0.9
0.9
0.9
0.9
0.8996621
0.8996989
0.899734
0.8997705
0.899809
0.8998495
0.8998891
0.8999237
0.8999509
0.89997
0.8999818
0.8999884
0.899992
0.899994
0.8999954
0.8999966
0.8999975
0.8999984
0.8999991
0.8999997
0.8996847
0.8997213
0.8997532
0.8997802
0.8998029
0.8998218
0.8998379
0.8998515
0.8998631
0.899873
0.8998813
0.8998881
0.8998935
0.8998977
0.899901
0.8999037
0.8999061
0.8999081
0.8999096
0.8999104
0.8996908
0.8997272
0.8997588
0.8997855
0.8998079
0.8998269
0.899843
0.8998567
0.8998684
0.8998784
0.899887
0.8998946
0.8999013
0.8999073
0.8999127
0.8999175
0.8999214
0.8999244
0.8999261
0.8999268
0.8996679
0.8997027
0.8997323
0.8997597
0.8997891
0.8998213
0.8998564
0.8998904
0.8999196
0.8999426
0.8999596
0.8999719
0.8999806
0.8999867
0.8999909
0.8999939
0.899996
0.8999976
0.8999987
0.8999995
0.8997019
0.8997395
0.8997766
0.8998148
0.8998528
0.8998895
0.8999229
0.8999505
0.8999709
0.8999841
0.8999918
0.899996
0.8999981
0.8999991
0.8999996
0.8999998
0.8999999
0.9
0.9
0.9
0.8997391
0.8997784
0.899818
0.8998567
0.899893
0.8999254
0.899952
0.8999718
0.8999849
0.8999926
0.8999966
0.8999985
0.8999993
0.8999997
0.8999998
0.8999999
0.9
0.9
0.9
0.9
0.8996809
0.899716
0.8997469
0.8997772
0.89981
0.899846
0.899884
0.899918
0.8999451
0.8999644
0.899977
0.8999847
0.8999893
0.8999923
0.8999943
0.8999959
0.8999972
0.8999982
0.899999
0.8999996
0.8997057
0.8997422
0.8997737
0.8998002
0.8998223
0.8998408
0.8998563
0.8998694
0.8998805
0.8998898
0.8998975
0.8999038
0.8999089
0.8999131
0.8999166
0.8999197
0.8999224
0.8999247
0.8999263
0.899927
0.8997091
0.8997456
0.8997769
0.8998033
0.8998253
0.8998436
0.899859
0.8998719
0.8998829
0.8998921
0.8998998
0.8999064
0.8999119
0.8999168
0.8999213
0.8999253
0.8999287
0.8999314
0.8999331
0.8999338
0.8996874
0.8997224
0.8997529
0.899782
0.8998136
0.8998483
0.8998846
0.8999168
0.8999425
0.899961
0.8999737
0.899982
0.8999874
0.8999911
0.8999936
0.8999955
0.899997
0.8999981
0.899999
0.8999996
0.8997397
0.8997786
0.8998176
0.8998556
0.8998917
0.899924
0.8999509
0.8999709
0.8999841
0.8999918
0.899996
0.899998
0.8999991
0.8999995
0.8999998
0.8999999
0.8999999
0.9
0.9
0.9
0.8997434
0.8997825
0.8998216
0.8998597
0.8998956
0.8999276
0.8999538
0.8999731
0.8999856
0.8999928
0.8999966
0.8999984
0.8999992
0.8999996
0.8999998
0.8999999
0.9
0.9
0.9
0.9
0.8996892
0.8997243
0.8997549
0.8997844
0.8998166
0.899852
0.8998889
0.8999214
0.8999469
0.8999649
0.8999767
0.8999841
0.8999888
0.8999918
0.899994
0.8999957
0.8999971
0.8999981
0.899999
0.8999996
0.8997107
0.8997471
0.8997785
0.8998048
0.8998267
0.899845
0.8998602
0.899873
0.8998838
0.8998929
0.8999004
0.8999066
0.8999117
0.8999161
0.8999198
0.8999232
0.8999263
0.8999287
0.8999304
0.8999311
0.8997117
0.8997481
0.8997795
0.8998057
0.8998276
0.8998458
0.899861
0.8998738
0.8998846
0.8998936
0.8999012
0.8999074
0.8999126
0.8999171
0.8999211
0.8999247
0.8999279
0.8999304
0.8999321
0.8999328
0.8996916
0.8997267
0.8997574
0.899787
0.8998192
0.8998546
0.8998909
0.8999225
0.8999473
0.8999647
0.8999763
0.8999837
0.8999884
0.8999916
0.8999939
0.8999956
0.899997
0.8999981
0.899999
0.8999996
0.8997476
0.8997868
0.8998258
0.8998637
0.8998992
0.8999305
0.899956
0.8999745
0.8999863
0.899993
0.8999966
0.8999983
0.8999992
0.8999996
0.8999998
0.8999999
0.9
0.9
0.9
0.9
0.899747
0.8997862
0.8998252
0.8998632
0.8998987
0.8999301
0.8999557
0.8999743
0.8999862
0.899993
0.8999966
0.8999983
0.8999992
0.8999996
0.8999998
0.8999999
0.9
0.9
0.9
0.9
0.8996914
0.8997265
0.8997573
0.8997868
0.899819
0.8998543
0.8998907
0.8999224
0.8999472
0.8999647
0.8999763
0.8999837
0.8999884
0.8999916
0.8999939
0.8999956
0.899997
0.8999981
0.899999
0.8999996
0.8997117
0.8997481
0.8997794
0.8998057
0.8998276
0.8998458
0.899861
0.8998738
0.8998845
0.8998936
0.8999011
0.8999074
0.8999126
0.8999171
0.899921
0.8999247
0.8999278
0.8999304
0.8999321
0.8999328
0.8997109
0.8997473
0.8997787
0.899805
0.8998269
0.8998451
0.8998604
0.8998732
0.899884
0.8998931
0.8999006
0.8999068
0.8999119
0.8999162
0.89992
0.8999235
0.8999265
0.8999289
0.8999306
0.8999313
0.8996894
0.8997245
0.8997551
0.8997846
0.8998168
0.8998522
0.8998891
0.8999216
0.899947
0.899965
0.8999768
0.8999842
0.8999888
0.8999919
0.899994
0.8999957
0.8999971
0.8999982
0.899999
0.8999996
0.8997435
0.8997825
0.8998216
0.8998597
0.8998956
0.8999276
0.8999539
0.8999731
0.8999856
0.8999928
0.8999966
0.8999984
0.8999992
0.8999996
0.8999998
0.8999999
0.9
0.9
0.9
0.9
0.8997397
0.8997787
0.8998176
0.8998557
0.8998917
0.899924
0.8999509
0.8999709
0.8999841
0.8999918
0.899996
0.899998
0.8999991
0.8999995
0.8999998
0.8999999
0.8999999
0.9
0.9
0.9
0.8996873
0.8997223
0.8997528
0.8997819
0.8998136
0.8998483
0.8998846
0.8999168
0.8999425
0.899961
0.8999737
0.899982
0.8999874
0.899991
0.8999936
0.8999955
0.899997
0.8999981
0.899999
0.8999996
0.8997091
0.8997455
0.8997769
0.8998033
0.8998252
0.8998436
0.899859
0.8998719
0.8998828
0.8998921
0.8998998
0.8999064
0.8999119
0.8999168
0.8999212
0.8999252
0.8999287
0.8999314
0.8999331
0.8999338
0.8997057
0.8997422
0.8997737
0.8998002
0.8998223
0.8998408
0.8998563
0.8998694
0.8998805
0.8998898
0.8998976
0.8999039
0.899909
0.8999131
0.8999166
0.8999197
0.8999225
0.8999248
0.8999264
0.8999271
0.8996809
0.899716
0.8997469
0.8997771
0.89981
0.8998459
0.899884
0.899918
0.8999451
0.8999644
0.899977
0.8999847
0.8999893
0.8999923
0.8999943
0.8999959
0.8999972
0.8999982
0.899999
0.8999996
0.8997386
0.8997779
0.8998175
0.8998561
0.8998926
0.899925
0.8999517
0.8999716
0.8999848
0.8999925
0.8999966
0.8999985
0.8999993
0.8999997
0.8999998
0.8999999
0.9
0.9
0.9
0.9
0.8997019
0.8997396
0.8997767
0.8998149
0.8998529
0.8998896
0.8999229
0.8999506
0.899971
0.8999842
0.8999918
0.899996
0.8999981
0.8999991
0.8999996
0.8999998
0.8999999
0.9
0.9
0.9
0.8996679
0.8997027
0.8997323
0.8997597
0.8997891
0.8998213
0.8998564
0.8998904
0.8999195
0.8999425
0.8999596
0.8999719
0.8999806
0.8999867
0.8999909
0.8999939
0.899996
0.8999976
0.8999987
0.8999995
0.8996909
0.8997273
0.8997589
0.8997855
0.899808
0.899827
0.8998431
0.8998568
0.8998684
0.8998785
0.8998871
0.8998947
0.8999014
0.8999074
0.8999128
0.8999175
0.8999215
0.8999244
0.8999261
0.8999268
0.8996848
0.8997215
0.8997534
0.8997804
0.899803
0.899822
0.899838
0.8998516
0.8998633
0.8998732
0.8998815
0.8998883
0.8998937
0.8998979
0.8999012
0.8999039
0.8999063
0.8999083
0.8999099
0.8999106
0.8996621
0.8996988
0.8997339
0.8997704
0.8998089
0.8998494
0.899889
0.8999236
0.8999509
0.8999699
0.8999818
0.8999884
0.899992
0.8999941
0.8999955
0.8999966
0.8999976
0.8999984
0.8999991
0.8999997
0.8996721
0.8997102
0.8997488
0.8997885
0.8998286
0.899868
0.8999045
0.8999362
0.8999613
0.8999789
0.8999899
0.8999958
0.8999985
0.8999995
0.8999998
0.9
0.9
0.9
0.9
0.9
0.8996369
0.8996728
0.8997055
0.8997385
0.8997738
0.8998118
0.8998501
0.8998867
0.8999197
0.8999472
0.899968
0.8999822
0.8999908
0.8999955
0.899998
0.8999992
0.8999997
0.8999999
0.9
0.9
0.8996282
0.8996636
0.8996946
0.8997241
0.8997529
0.8997814
0.8998099
0.8998386
0.8998678
0.8998972
0.8999228
0.899944
0.8999607
0.8999735
0.8999829
0.8999895
0.8999939
0.8999967
0.8999984
0.8999994
0.8996651
0.8997024
0.8997363
0.8997667
0.8997939
0.8998182
0.8998402
0.8998601
0.8998781
0.8998943
0.8999086
0.8999207
0.8999308
0.8999389
0.8999449
0.8999492
0.8999521
0.8999539
0.8999548
0.8999551
0.8996938
0.899732
0.8997673
0.8997988
0.8998263
0.8998501
0.8998704
0.8998877
0.8999026
0.8999153
0.899926
0.8999347
0.8999418
0.8999475
0.899952
0.8999555
0.8999581
0.8999598
0.8999606
0.8999608
0.8997315
0.8997694
0.8998034
0.8998325
0.8998568
0.8998768
0.8998933
0.899907
0.8999185
0.899928
0.8999359
0.8999422
0.8999473
0.8999516
0.8999558
0.8999596
0.8999629
0.8999652
0.8999665
0.8999669
0.8997921
0.8998273
0.8998559
0.8998786
0.8998965
0.8999115
0.8999247
0.8999368
0.899948
0.899958
0.8999668
0.899974
0.8999792
0.8999822
0.8999831
0.8999832
0.8999831
0.8999831
0.8999833
0.8999834
0.899837
0.8998748
0.899906
0.8999278
0.8999428
0.899954
0.8999632
0.8999709
0.8999774
0.8999827
0.8999869
0.8999902
0.8999927
0.8999948
0.8999965
0.8999978
0.8999987
0.8999993
0.8999997
0.8999999
0.8998472
0.8998847
0.8999147
0.8999346
0.8999475
0.899957
0.8999652
0.8999728
0.8999797
0.8999858
0.8999908
0.8999945
0.899997
0.8999985
0.8999993
0.8999997
0.8999999
0.9
0.9
0.9
0.899832
0.899869
0.899898
0.8999198
0.899937
0.8999515
0.8999643
0.8999753
0.8999842
0.8999909
0.8999952
0.8999978
0.8999991
0.8999996
0.8999999
0.9
0.9
0.9
0.9
0.9
0.8998267
0.8998644
0.8998954
0.8999182
0.8999355
0.8999497
0.8999622
0.8999728
0.8999812
0.8999874
0.8999916
0.8999943
0.8999961
0.8999972
0.899998
0.8999986
0.8999991
0.8999995
0.8999997
0.8999999
0.8997618
0.8997987
0.8998302
0.8998561
0.8998771
0.8998944
0.8999091
0.8999219
0.8999331
0.8999429
0.8999516
0.8999595
0.8999667
0.8999731
0.8999785
0.8999828
0.899986
0.8999881
0.8999891
0.8999894
0.8998019
0.8998385
0.8998694
0.8998941
0.8999135
0.899929
0.8999418
0.8999527
0.8999619
0.8999695
0.8999756
0.8999802
0.8999835
0.899986
0.8999881
0.8999897
0.899991
0.8999918
0.8999923
0.8999925
0.8998512
0.8998893
0.8999209
0.8999433
0.8999567
0.8999654