/*--------------------------------*- C++ -*----------------------------------*\
| =========                 |                                                 |
| \\      /  F ield         | OpenFOAM: The Open Source CFD Toolbox           |
|  \\    /   O peration     | Version:  4.0                                   |
|   \\  /    A nd           | Web:      www.OpenFOAM.org                      |
|    \\/     M anipulation  |                                                 |
\*---------------------------------------------------------------------------*/
FoamFile
{
    version     2.0;
    format      ascii;
    class       volScalarField;
    location    "120/fuel";
    object      YCO2fuel;
}
// * * * * * * * * * * * * * * * * * * * * * * * * * * * * * * * * * * * * * //

dimensions      [0 0 0 0 0 0 0];

internalField   nonuniform List<scalar> 
39776
(
0.0003568713
0.0003423429
0.0003862088
0.0003717284
0.000424079
0.0004096561
0.0004146134
0.0004001761
0.0003788483
0.0003643535
0.0003892696
0.0003747945
0.0003662341
0.0003517238
0.000359945
0.0003454251
0.0003833409
0.00036886
0.0003486587
0.0003341167
0.0003105509
0.0002959396
0.0003700741
0.0003555731
0.0003447251
0.0003301802
0.0003411939
0.0003266431
0.000363441
0.0003489296
0.0003099742
0.0002953632
0.0003061379
0.0002915191
0.0003615909
0.000347077
0.0003395782
0.0003250253
0.0003385328
0.0003239779
0.0003591133
0.0003445965
0.0003018581
0.0002872318
0.000302474
0.0002878483
0.0003592552
0.0003447388
0.0003385617
0.0003240081
0.0003394078
0.000324855
0.0003613478
0.0003468339
0.0003061183
0.0002914997
0.0003099357
0.0002953249
0.0003634598
0.0003489493
0.0003412154
0.0003266653
0.0003446569
0.0003301125
0.0003700705
0.0003555701
0.0003110786
0.0002964686
0.0003485961
0.0003340543
0.0003833467
0.0003688663
0.0003598656
0.000345346
0.0003660929
0.0003515827
0.0003893214
0.000374847
0.0003790606
0.0003645664
0.0004151043
0.0004006675
0.0004240082
0.0004095861
0.0003862095
0.0003717299
0.0003569454
0.000342418
0.0003183554
0.0003037656
0.0002563308
0.0002416206
0.0002105793
0.000195749
0.0002002047
0.0001853444
0.0002156839
0.0002008683
0.0002210815
0.000206279
0.0002872763
0.0002726318
0.0002463583
0.0002316245
0.0001960912
0.0001812191
0.0001982627
0.0001833993
0.0001993453
0.0001844846
0.0001979735
0.0001831066
0.0002572771
0.0002425685
0.000244848
0.0002301105
0.000192299
0.0001774151
0.0001960455
0.0001811751
0.0001966825
0.0001818131
0.0001938467
0.0001789669
0.0002497935
0.0002350672
0.000246687
0.0002319532
0.0001926639
0.0001777804
0.0001960044
0.0001811334
0.0001961173
0.0001812465
0.000192724
0.0001778408
0.0002467631
0.0002320296
0.0002496637
0.0002349371
0.000193735
0.0001788556
0.0001966006
0.0001817317
0.000196041
0.0001811708
0.0001923056
0.0001774219
0.0002448501
0.0002301127
0.0002572427
0.0002425348
0.0001979363
0.0001830701
0.0001991741
0.0001843131
0.0001983056
0.0001834421
0.00019607
0.0001811978
0.0002463159
0.0002315821
0.0002872071
0.0002725624
0.0002209777
0.0002061753
0.0002156838
0.0002008687
0.0002002746
0.0001854147
0.0002106756
0.0001958451
0.0002564378
0.0002417274
0.0003184173
0.0003038282
0.0002891268
0.0002744811
0.0002416114
0.0002268647
0.0002003457
0.0001854848
0.0002114697
0.0001966413
0.0002476743
0.0002329378
0.0002439813
0.0002292348
0.0002892907
0.0002746443
0.0002529214
0.0002381981
0.0002054404
0.0001905944
0.0002238492
0.000209054
0.0002300971
0.0002153184
0.0002138359
0.0001990137
0.0002713475
0.000256665
0.0002560298
0.0002413138
0.0002048178
0.0001899713
0.0002260292
0.0002112407
0.0002283024
0.0002135195
0.0002084387
0.0001936028
0.0002634306
0.0002487315
0.000259072
0.0002443633
0.0002062846
0.0001914427
0.0002271741
0.0002123893
0.0002272913
0.0002125066
0.0002063582
0.0001915166
0.0002591937
0.0002444854
0.0002632849
0.0002485856
0.0002083186
0.0001934825
0.0002282297
0.0002134468
0.0002260341
0.0002112456
0.0002048449
0.0001899984
0.0002560363
0.0002413204
0.0002713341
0.0002566516
0.0002138182
0.0001989959
0.0002301472
0.0002153685
0.000223824
0.0002090288
0.0002054387
0.0001905928
0.000252911
0.0002381878
0.0002892311
0.0002745846
0.0002438372
0.0002290903
0.000247678
0.0002329414
0.0002116118
0.0001967834
0.0002004052
0.0001855442
0.0002416564
0.0002269097
0.0002891455
0.0002744999
0.0002890505
0.0002744038
0.0002506955
0.0002359671
0.0002082387
0.0001934011
0.0002249831
0.0002101912
0.0002741194
0.0002594433
0.0002675183
0.000252826
0.0003095379
0.000294931
0.0002693943
0.0002547071
0.0002220047
0.0002072046
0.0002482655
0.000233531
0.0002570399
0.0002423263
0.0002343661
0.0002195976
0.0002897399
0.0002750947
0.000274047
0.0002593691
0.0002234701
0.0002086735
0.0002524865
0.0002377617
0.0002548654
0.000240146
0.000228071
0.0002132862
0.0002818598
0.0002671974
0.0002772847
0.0002626129
0.0002254963
0.0002107043
0.0002537215
0.0002389991
0.0002538301
0.0002391078
0.0002255776
0.0002107858
0.0002774256
0.0002627542
0.0002817227
0.00026706
0.0002279677
0.0002131819
0.0002548169
0.0002400968
0.0002524881
0.0002377633
0.0002235085
0.000208712
0.0002740751
0.0002593972
0.0002897278
0.0002750818
0.0002343433
0.000219574
0.0002570894
0.000242376
0.0002482507
0.0002335164
0.0002220149
0.000207215
0.0002694064
0.0002547193
0.0003095055
0.0002948987
0.0002673534
0.0002526604
0.0002741535
0.0002594771
0.0002251306
0.0002103385
0.0002082998
0.0001934626
0.000250714
0.000235986
0.0002890582
0.000274411
0.0003103216
0.0002957152
0.0002654925
0.0002507954
0.0002242381
0.0002094433
0.0002437761
0.0002290297
0.0002983158
0.0002836868
0.0002950106
0.0002803731
0.0003232488
0.0003086648
0.00028519
0.0002705332
0.0002416385
0.0002268857
0.0002709933
0.0002563078
0.000282393
0.0002677321
0.0002603606
0.0002456511
0.000304112
0.000289493
0.0002911225
0.0002764782
0.0002454995
0.0002307563
0.0002761553
0.0002614815
0.0002791839
0.0002645164
0.0002523303
0.0002376029
0.0002970033
0.0002823709
0.000293274
0.000278635
0.0002488342
0.0002340994
0.0002778121
0.0002631424
0.0002779161
0.0002632466
0.0002489172
0.0002341826
0.0002933997
0.00027876
0.0002968977
0.0002822647
0.0002522267
0.0002374987
0.0002791312
0.0002644632
0.0002761628
0.0002614886
0.0002455629
0.0002308191
0.0002911512
0.0002765065
0.0003041068
0.0002894872
0.0002603399
0.0002456298
0.0002824449
0.0002677834
0.0002709817
0.0002562958
0.0002416603
0.0002269074
0.0002852056
0.0002705486
0.0003232543
0.00030867
0.0002948544
0.0002802163
0.0002983557
0.0002837268
0.0002439345
0.0002291875
0.0002243191
0.0002095237
0.0002655173
0.0002508196
0.0003103336
0.0002957265
0.000329475
0.000314901
0.000280521
0.0002658533
0.000241758
0.0002270039
0.0002612744
0.0002465658
0.0003189365
0.0003043443
0.0003177052
0.0003031086
0.0003431111
0.0003285597
0.0003013255
0.0002866985
0.000259897
0.0002451842
0.0002913764
0.0002767305
0.0003058165
0.0002912017
0.0002813587
0.0002666943
0.0003229654
0.0003083818
0.0003089293
0.0002943197
0.0002648988
0.0002501995
0.0002979778
0.0002833487
0.0003016476
0.0002870257
0.0002726541
0.0002579725
0.00031536
0.0003007636
0.0003112144
0.0002966102
0.000268661
0.0002539708
0.0003000561
0.0002854313
0.0003001515
0.0002855267
0.0002687403
0.0002540505
0.000311299
0.0002966951
0.0003152844
0.0003006878
0.0002725507
0.0002578688
0.0003015864
0.0002869643
0.0002979837
0.0002833547
0.0002649525
0.0002502544
0.00030896
0.0002943497
0.0003229741
0.0003083897
0.0002813422
0.0002666768
0.000305864
0.0002912484
0.0002913505
0.0002767064
0.0002599127
0.0002452017
0.0003013181
0.0002866929
0.0003431016
0.0003285519
0.0003175125
0.0003029173
0.0003189783
0.0003043875
0.0002613922
0.0002466876
0.0002418023
0.0002270524
0.0002804923
0.0002658285
0.0003294355
0.0003148654
0.0003480943
0.0003335558
0.0002950184
0.000280384
0.0002601076
0.0002454002
0.0002777229
0.0002630539
0.0003368812
0.0003223248
0.0003391653
0.0003246111
0.0003621879
0.0003476722
0.0003162605
0.0003016658
0.0002780286
0.0002633592
0.0003098814
0.0002952756
0.0003272135
0.0003126395
0.0003008383
0.0002862141
0.0003419028
0.0003273538
0.0003252927
0.0003107145
0.0002838406
0.0002691828
0.0003179688
0.0003033778
0.0003223464
0.0003077611
0.0002919139
0.0002772701
0.0003330866
0.0003185201
0.0003286402
0.0003140658
0.0002877235
0.0002730712
0.0003204767
0.0003058882
0.0003205633
0.0003059748
0.0002878031
0.0002731512
0.0003287059
0.0003141318
0.0003330216
0.0003184551
0.0002917883
0.0002771467
0.0003222535
0.0003076705
0.0003179783
0.0003033875
0.000283913
0.0002692556
0.0003253146
0.0003107367
0.0003419041
0.0003273558
0.000300796
0.0002861724
0.0003272391
0.0003126656
0.0003098633
0.0002952579
0.0002780398
0.0002633709
0.0003162579
0.0003016637
0.0003621942
0.000347679
0.0003389764
0.0003244222
0.0003369562
0.0003224002
0.0002778643
0.0002631957
0.0002601825
0.0002454751
0.0002950094
0.0002803749
0.0003480788
0.0003335409
0.0003670788
0.0003525712
0.0003100291
0.000295423
0.0002776925
0.0002630202
0.0002935046
0.0002788648
0.0003525732
0.0003380403
0.0003585229
0.0003439978
0.0003809375
0.0003664488
0.0003307317
0.0003161604
0.0002949285
0.0002802906
0.0003269141
0.0003123366
0.0003466855
0.0003321422
0.0003186788
0.0003040857
0.0003607535
0.0003462356
0.000341222
0.0003266714
0.0003012423
0.0002866189
0.0003362693
0.0003217106
0.0003412224
0.000326672
0.000309255
0.0002946472
0.0003511193
0.0003365861
0.000345852
0.0003313099
0.0003049937
0.0002903777
0.0003390967
0.0003245433
0.0003391771
0.0003246237
0.0003050734
0.0002904577
0.0003458965
0.0003313544
0.0003510705
0.0003365372
0.0003091492
0.0002945411
0.0003411451
0.0003265946
0.0003362903
0.0003217317
0.0003013418
0.0002867186
0.0003412495
0.000326699
0.0003607725
0.0003462546
0.0003186076
0.0003040143
0.0003466962
0.0003321529
0.000326903
0.0003123255
0.0002949595
0.0002803216
0.0003306943
0.0003161231
0.0003809179
0.0003664292
0.0003583618
0.0003438364
0.0003526721
0.0003381392
0.0002936466
0.0002790069
0.0002777693
0.0002630972
0.0003100111
0.000295405
0.0003670716
0.0003525641
0.0003862542
0.0003717757
0.0003253969
0.0003108184
0.0002943437
0.0002797071
0.0003087475
0.0002941395
0.000366916
0.0003524086
0.0003752633
0.0003607665
0.0004005264
0.0003860694
0.0003447956
0.0003302506
0.0003112589
0.0002966546
0.000342692
0.0003281442
0.0003645348
0.0003500229
0.0003357398
0.0003211794
0.0003788958
0.0003644063
0.0003573811
0.0003428569
0.0003175201
0.0003029265
0.000353162
0.0003386312
0.0003585207
0.0003439985
0.0003253671
0.0003107879
0.0003690329
0.0003545253
0.0003633874
0.0003488707
0.0003212358
0.0003066465
0.0003562842
0.0003417561
0.0003563574
0.0003418293
0.0003213187
0.0003067297
0.0003634369
0.0003489203
0.0003689791
0.0003544713
0.0003252857
0.0003107037
0.0003584729
0.0003439481
0.0003531863
0.0003386553
0.000317635
0.0003030416
0.0003574205
0.0003428962
0.000378926
0.0003644359
0.0003356754
0.0003211142
0.0003645403
0.000350028
0.0003426899
0.0003281416
0.0003113147
0.0002967102
0.0003447527
0.0003302074
0.0004005008
0.0003860435
0.0003751284
0.0003606312
0.0003670107
0.000352503
0.0003088815
0.0002942733
0.0002944219
0.0002797856
0.0003253737
0.0003107953
0.0003862486
0.0003717697
0.0004047868
0.0003903345
0.0003411983
0.0003266462
0.0003103261
0.0002957192
0.0003235557
0.0003089736
0.000380435
0.0003659448
0.0003897293
0.0003752504
0.0004186425
0.0004042073
0.0003603864
0.0003458635
0.000327124
0.0003125447
0.0003574484
0.0003429213
0.0003810952
0.0003666053
0.0003522867
0.0003377504
0.0003965763
0.0003821095
0.0003738668
0.0003593654
0.000332858
0.0003182902
0.0003687546
0.0003542472
0.0003746412
0.000360143
0.0003410409
0.0003264877
0.0003863617
0.0003718815
0.0003808094
0.0003663208
0.0003363096
0.0003217477
0.0003721188
0.0003576167
0.000372184
0.000357682
0.0003363984
0.0003218368
0.0003808635
0.000366375
0.000386296
0.0003718156
0.000340933
0.0003263795
0.0003745869
0.0003600886
0.0003687698
0.0003542624
0.0003329819
0.0003184134
0.000373906
0.0003594056
0.000396578
0.000382112
0.0003522449
0.0003377093
0.0003810914
0.0003666023
0.0003574655
0.0003429366
0.0003272226
0.0003126419
0.0003604127
0.0003458884
0.0004186079
0.000404171
0.0003896338
0.000375153
0.0003805276
0.000366036
0.000323714
0.0003091281
0.0003104483
0.0002958378
0.0003412215
0.0003266656
0.0004048216
0.0003903656
0.0004230374
0.0004086089
0.0003572092
0.000342682
0.0003260015
0.0003114217
0.0003380039
0.0003234455
0.0003933918
0.0003789218
0.0004025815
0.0003881235
0.0004346173
0.0004202057
0.0003771249
0.0003626297
0.000342765
0.0003282145
0.0003713495
0.0003568462
0.0003961487
0.0003816871
0.0003674457
0.0003529395
0.0004140217
0.0003995858
0.0003903147
0.0003758442
0.000347346
0.000332807
0.0003829572
0.0003684761
0.000389877
0.0003754064
0.0003565899
0.0003420671
0.0004031925
0.0003887415
0.0003977349
0.0003832759
0.0003503677
0.0003358337
0.0003867344
0.0003722587
0.0003867668
0.0003722912
0.0003504517
0.000335918
0.0003977986
0.0003833395
0.0004030923
0.0003886414
0.000356489
0.0003419661
0.0003898295
0.000375359
0.000382974
0.0003684932
0.000347503
0.000332965
0.0003904016
0.0003759287
0.0004140822
0.0003996439
0.0003674035
0.0003528946
0.0003961653
0.0003817012
0.0003713408
0.0003568392
0.0003428237
0.0003282756
0.0003771169
0.000362624
0.0004345714
0.0004201619
0.0004024822
0.0003880261
0.0003934176
0.0003789505
0.0003380573
0.0003235052
0.0003260479
0.0003114746
0.0003571573
0.0003426365
0.0004229655
0.0004085434
0.0004408034
0.0004264048
0.0003735021
0.0003590074
0.0003415475
0.0003270015
0.0003515513
0.0003370222
0.0004048903
0.0003904434
0.0004161384
0.000401706
0.000450274
0.0004358889
0.0003936378
0.0003791727
0.0003581424
0.0003436229
0.000384871
0.0003703941
0.0004100431
0.0003956029
0.0003809958
0.0003665115
0.0004306745
0.0004162628
0.0004072808
0.0003928362
0.0003613985
0.0003468838
0.0003961701
0.0003817096
0.0004042511
0.0003897991
0.0003712695
0.0003567674
0.000419984
0.0004055545
0.0004143036
0.0003998659
0.0003639331
0.0003494193
0.0004003965
0.000385939
0.0004003994
0.000385942
0.0003640032
0.0003494899
0.0004143761
0.0003999388
0.0004198671
0.0004054376
0.0003711725
0.0003566734
0.0004041884
0.0003897396
0.0003962012
0.0003817409
0.0003616423
0.0003471283
0.0004074122
0.0003929681
0.0004306215
0.0004162102
0.0003808806
0.0003663966
0.0004100298
0.00039559
0.0003848688
0.0003703924
0.000358167
0.000343648
0.0003935918
0.0003791271
0.0004503003
0.0004359154
0.0004160798
0.0004016474
0.0004049175
0.0003904707
0.0003516278
0.0003370988
0.0003416374
0.0003270914
0.0003735295
0.0003590349
0.0004407779
0.0004263798
0.0004584164
0.0004440405
0.0003914206
0.0003769529
0.0003576051
0.0003430823
0.0003646068
0.0003500951
0.0004145321
0.0004000951
0.0004305944
0.0004161789
0.0004661744
0.0004518062
0.0004110322
0.0003965886
0.0003737592
0.0003592609
0.0003986846
0.0003842249
0.0004229158
0.00040849
0.0003934908
0.0003790221
0.0004465775
0.0004321868
0.0004245067
0.0004100862
0.0003757782
0.0003612863
0.0004092507
0.0003948092
0.0004173216
0.000402891
0.0003840207
0.0003695412
0.0004365641
0.0004221606
0.0004305747
0.0004161629
0.0003779607
0.0003634726
0.0004132984
0.0003988627
0.0004132864
0.0003988507
0.0003780439
0.0003635562
0.0004306508
0.0004162392
0.0004364552
0.0004220515
0.0003839354
0.0003694556
0.0004173098
0.0004028791
0.0004092894
0.000394848
0.0003760949
0.0003616035
0.0004246875
0.0004102673
0.0004464868
0.000432096
0.0003933249
0.0003788559
0.0004228919
0.0004084661
0.0003986818
0.0003842221
0.0003737839
0.0003592858
0.0004109752
0.0003965318
0.000466211
0.0004518427
0.0004305122
0.0004160965
0.0004145754
0.0004001383
0.0003646939
0.0003501824
0.0003577034
0.0003431808
0.0003914808
0.0003770133
0.0004584122
0.0004440365
0.0004762027
0.0004618485
0.0004109918
0.0003965522
0.0003738011
0.0003593068
0.0003773342
0.0003628456
0.0004232086
0.0004087867
0.0004443451
0.0004299512
0.0004813823
0.0004670359
0.0004298855
0.0004154707
0.0003889462
0.0003744735
0.000412186
0.0003977485
0.000434977
0.0004205706
0.0004057037
0.0003912561
0.0004622579
0.0004478874
0.0004418425
0.0004274448
0.0003907055
0.0003762357
0.0004224286
0.0004080051
0.0004291781
0.0004147632
0.0003957174
0.0003812544
0.000452691
0.0004383046
0.0004470885
0.0004326947
0.0003926124
0.0003781426
0.000425822
0.0004113998
0.0004257842
0.000411362
0.0003927256
0.0003782561
0.0004471592
0.0004327654
0.0004525646
0.0004381777
0.0003956527
0.0003811861
0.0004292143
0.0004147961
0.0004224755
0.0004080519
0.0003910526
0.0003765831
0.0004420472
0.0004276496
0.0004621856
0.0004478145
0.0004055333
0.0003910849
0.0004349618
0.000420555
0.0004121798
0.000397742
0.0003889925
0.0003745197
0.0004298887
0.0004154739
0.000481382
0.0004670353
0.0004441889
0.0004297944
0.0004232929
0.0004088708
0.0003774356
0.0003629469
0.0003738913
0.0003593973
0.0004110509
0.0003966116
0.0004762222
0.0004618677
0.000494283
0.0004799496
0.0004324212
0.0004180102
0.000391024
0.0003765549
0.0003904793
0.0003760094
0.0004319074
0.0004174929
0.0004565925
0.0004422099
0.0004964548
0.0004821221
0.0004482143
0.000433819
0.0004022532
0.0003877945
0.000424701
0.0004102755
0.0004464933
0.0004320972
0.0004185405
0.0004041064
0.0004782339
0.0004638783
0.0004589294
0.0004445491
0.0004051095
0.0003906589
0.0004350954
0.0004206874
0.0004406907
0.0004262899
0.0004075078
0.0003930607
0.0004685065
0.0004541418
0.0004638043
0.0004494331
0.0004079178
0.0003934714
0.0004380949
0.0004236904
0.0004380526
0.0004236481
0.000408107
0.0003936612
0.0004638514
0.0004494806
0.0004683137
0.0004539483
0.0004073316
0.0003928837
0.0004406793
0.0004262781
0.0004351682
0.0004207601
0.0004054831
0.0003910324
0.0004591027
0.0004447252
0.0004781426
0.0004637894
0.0004183677
0.0004039358
0.0004464456
0.0004320519
0.0004246917
0.0004102646
0.0004023339
0.0003878735
0.0004482891
0.0004338919
0.0004964362
0.0004821011
0.000456394
0.0004420088
0.0004320425
0.0004176249
0.000390655
0.000376179
0.0003911613
0.0003766862
0.0004325158
0.0004180988
0.0004943902
0.0004800507
0.000512913
0.0004985978
0.0004557691
0.0004413854
0.0004075176
0.0003930691
0.0004035
0.0003890461
0.0004407439
0.0004263414
0.0004672654
0.0004528974
0.0005104148
0.0004960992
0.0004659137
0.0004515422
0.0004121365
0.0003976919
0.0004351914
0.0004207813
0.0004569551
0.0004425773
0.0004320957
0.0004176852
0.0004928553
0.0004785219
0.0004764736
0.00046212
0.0004177426
0.000403311
0.000446293
0.0004319011
0.000452119
0.0004377348
0.0004197717
0.0004053435
0.0004836664
0.0004693219
0.0004809963
0.0004666484
0.0004224792
0.0004080537
0.0004498857
0.0004354976
0.0004498806
0.0004354926
0.0004228453
0.0004084208
0.0004810407
0.000466692
0.0004833295
0.0004689838
0.0004194872
0.0004050578
0.0004520686
0.0004376837
0.0004463728
0.0004319804
0.0004181932
0.0004037614
0.0004767244
0.0004623678
0.0004927562
0.0004784195
0.000431932
0.0004175179
0.0004569636
0.0004425825
0.0004351688
0.0004207586
0.0004122234
0.0003977797
0.0004659825
0.0004516118
0.0005103562
0.0004960408
0.0004670189
0.0004526507
0.0004408403
0.0004264392
0.0004035804
0.0003891305
0.000407548
0.0003931037
0.0004557164
0.0004413368
0.0005129111
0.0004985998
0.000531842
0.0005175512
0.0004800575
0.0004657077
0.0004259512
0.0004115323
0.0004180341
0.0004036047
0.0004509694
0.0004365841
0.0004779036
0.0004635514
0.0005232407
0.0005089416
0.0004836157
0.0004692684
0.0004233503
0.0004089241
0.000445779
0.0004313853
0.0004677493
0.0004533844
0.0004454142
0.0004310204
0.0005072622
0.0004929446
0.0004938759
0.0004795424
0.0004312046
0.0004167906
0.0004573653
0.000442987
0.0004644257
0.0004500544
0.0004322123
0.0004177981
0.0004991437
0.0004848146
0.0004979473
0.0004836165
0.0004384282
0.0004240219
0.0004622772
0.0004479029
0.0004623706
0.0004479966
0.0004389546
0.0004245495
0.0004979829
0.0004836524
0.0004986669
0.0004843372
0.0004318177
0.0004174053
0.0004642999
0.0004499308
0.0004574797
0.0004431017
0.0004317242
0.0004173108
0.0004940612
0.000479728
0.00050708
0.0004927626
0.0004451383
0.0004307445
0.0004677787
0.000453414
0.0004457827
0.0004313894
0.0004234947
0.0004090694
0.0004837195
0.0004693729
0.0005231559
0.0005088567
0.0004776617
0.0004633087
0.0004510429
0.0004366574
0.0004181477
0.0004037184
0.0004260274
0.0004116085
0.0004800015
0.0004656514
0.0005318629
0.0005175722
0.000552123
0.0005378534
0.0005079343
0.0004936167
0.0004461167
0.0004317221
0.0004328974
0.0004184855
0.0004622699
0.0004478963
0.0004883146
0.0004739719
0.0005346423
0.0005203528
0.0005029665
0.0004886397
0.0004373708
0.0004229623
0.0004567328
0.0004423509
0.000478683
0.0004643292
0.0004581732
0.0004437928
0.0005209138
0.0005066114
0.0005127718
0.0004984599
0.000445539
0.0004311439
0.000468964
0.0004546003
0.0004766473
0.0004622935
0.0004441622
0.0004297659
0.0005148882
0.0005005797
0.0005155707
0.0005012625
0.0004540818
0.0004396979
0.0004751062
0.00046075
0.0004752333
0.0004608774
0.0004548
0.0004404171
0.0005156273
0.0005013193
0.0005143218
0.0005000126
0.000443767
0.0004293698
0.0004765311
0.0004621769
0.0004691494
0.0004547858
0.0004462651
0.0004318704
0.0005129193
0.0004986076
0.000520655
0.0005063528
0.0004577885
0.0004434079
0.0004786668
0.000464313
0.0004567229
0.0004423412
0.0004375649
0.0004231572
0.0005030963
0.00048877
0.0005345119
0.0005202219
0.0004880755
0.0004737321
0.0004624299
0.0004480561
0.0004330473
0.0004186355
0.0004461741
0.0004317797
0.0005078971
0.0004935797
0.0005521451
0.0005378755
0.0005737013
0.0005594535
0.0005351008
0.000520813
0.0004742062
0.0004598496
0.0004535509
0.0004391684
0.0004782754
0.0004639239
0.0005043727
0.0004900514
0.000544491
0.0005302135
0.0005219763
0.0005076737
0.0004639991
0.0004496293
0.0004743561
0.0004599994
0.00049452
0.0004801877
0.0004754396
0.0004610831
0.0005350413
0.000520754
0.0005298271
0.0005155337
0.0004677677
0.0004534017
0.0004860091
0.0004716664
0.0004922908
0.0004779558
0.0004613336
0.0004469597
0.0005322539
0.0005179615
0.0005324434
0.0005181507
0.0004758196
0.0004614597
0.0004923593
0.000478021
0.000492516
0.000478178
0.0004766057
0.0004622467
0.000532599
0.0005183064
0.00053171
0.0005174168
0.0004607881
0.0004464109
0.0004921621
0.0004778242
0.0004860936
0.000471751
0.000468533
0.0004541673
0.0005299543
0.0005156609
0.0005348939
0.0005206064
0.0004749428
0.0004605857
0.0004945515
0.0004802189
0.0004744271
0.0004600704
0.0004643256
0.0004499564
0.000522104
0.0005078016
0.0005443503
0.0005300723
0.0005040419
0.0004897199
0.0004783094
0.0004639579
0.0004536537
0.0004392715
0.0004743182
0.0004599619
0.0005351086
0.0005208212
0.0005737178
0.0005594702
0.0005990922
0.0005848692
0.0005699279
0.0005556767
0.0005133385
0.0004990289
0.0004812698
0.0004669219
0.0005021306
0.0004878047
0.0005274677
0.0005131708
0.0005551148
0.0005408453
0.0005447572
0.0005304768
0.000502413
0.0004880864
0.0004990398
0.0004847087
0.0005174548
0.0005031453
0.0005038216
0.0004894948
0.0005513435
0.0005370698
0.0005497488
0.0005354735
0.0004982739
0.0004839444
0.0005089217
0.0004946052
0.0005138926
0.0004995817
0.0004909859
0.0004766477
0.0005517228
0.0005374527
0.0005532147
0.0005389455
0.0005036138
0.0004892885
0.0005154861
0.0005011761
0.0005158179
0.0005015083
0.0005049626
0.0004906377
0.0005534856
0.0005392175
0.0005512104
0.0005369401
0.0004902747
0.0004759362
0.0005136905
0.0004993797
0.0005089309
0.0004946151
0.0004991632
0.0004848338
0.0005499782
0.0005357063
0.0005511146
0.0005368444
0.0005031247
0.0004888017
0.0005173379
0.0005030318
0.0004988734
0.0004845429
0.0005029925
0.0004886667
0.0005448243
0.0005305437
0.0005549979
0.0005407275
0.0005270054
0.0005127071
0.0005017599
0.0004874327
0.0004818004
0.0004674486
0.000513578
0.0004992645
0.0005700241
0.0005557691
0.0005991753
0.0005849485
0.0006306553
0.0006164579
0.0006097634
0.000595547
0.0005605992
0.0005463364
0.0005139062
0.0004995922
0.0005299687
0.0005156722
0.0005549561
0.0005406879
0.0005650398
0.0005507804
0.0005647094
0.0005504497
0.0005474361
0.0005331601
0.0005314006
0.0005171062
0.0005452208
0.0005309444
0.0005346949
0.000520406
0.0005659802
0.0005517238
0.0005676897
0.0005534353
0.0005358085
0.0005215209
0.0005383501
0.0005240656
0.0005429354
0.0005286565
0.0005302067
0.0005159145
0.0005707522
0.0005565011
0.0005700796
0.0005558268
0.0005330062
0.0005187117
0.000543286
0.000529005
0.000543529
0.0005292485
0.0005339895
0.0005196959
0.0005704221
0.0005561683
0.0005702558
0.0005560031
0.0005295538
0.0005152597
0.0005427209
0.0005284404
0.0005380776
0.0005237923
0.0005360573
0.000521768
0.0005681138
0.0005538563
0.0005661128
0.0005518534
0.0005340678
0.000519776
0.0005450704
0.0005307907
0.0005312979
0.0005170026
0.0005481947
0.0005339191
0.0005646886
0.0005504283
0.0005648465
0.0005505861
0.0005542938
0.0005400241
0.000529476
0.0005151804
0.0005143251
0.000500014
0.0005609228
0.0005466627
0.0006099058
0.0005956923
0.0006306899
0.0006164954
0.0006685334
0.0006543721
0.0006626501
0.0006484838
0.0006589387
0.0006447748
0.0005850972
0.0005708616
0.0005987202
0.0005844986
0.0006124264
0.0005982188
0.0005823178
0.0005680766
0.0005901035
0.0005758694
0.0006222256
0.0006080268
0.0006045604
0.0005903438
0.0006111904
0.0005969802
0.0006012495
0.0005870297
0.0005848679
0.000570628
0.0005938676
0.0005796368
0.0006133685
0.0005991603
0.0006088376
0.0005946245
0.0006130151
0.0005988046
0.0006103361
0.0005961241
0.0005950553
0.0005808234
0.0005942998
0.0005800675
0.0006085673
0.0005943511
0.0006120129
0.0005978004
0.0006124051
0.000598193
0.0006092038
0.0005949886
0.0005945092
0.0005802773
0.000594717
0.000580485
0.0006098227
0.0005956123
0.0006126297
0.0005984209
0.0006084529
0.00059424
0.0006135805
0.0005993725
0.0005943307
0.0005801006
0.0005849957
0.0005707566
0.0006010136
0.0005867945
0.0006110104
0.0005968007
0.0006045159
0.0005902999
0.0006223028
0.0006081047
0.0005898282
0.0005755942
0.0005820003
0.0005677587
0.000612049
0.0005978406
0.0005981472
0.000583925
0.0005851584
0.0005709228
0.0006593002
0.000645136
0.0006629426
0.000648776
0.0006687514
0.0006545898
0.0003147321
0.0002754304
0.0002391322
0.0002067218
0.0001784258
0.0001540487
0.0001331741
0.0001153241
0.0001000647
8.705341e-05
7.606442e-05
6.706875e-05
5.980031e-05
5.397355e-05
4.932169e-05
4.56938e-05
4.304345e-05
4.134759e-05
4.05071e-05
4.027963e-05
0.0003442205
0.0003058864
0.00027106
0.000239831
0.000211917
0.0001868779
0.0001642956
0.0001438321
0.0001253035
0.0001086449
9.401278e-05
8.151578e-05
7.114485e-05
6.283188e-05
5.663777e-05
5.221444e-05
4.922953e-05
4.739872e-05
4.6467e-05
4.616653e-05
0.0003822765
0.0003458698
0.0003139713
0.0002837397
0.0002541204
0.0002248235
0.0001955703
0.0001660666
0.0001360529
0.0001057867
7.94333e-05
5.766802e-05
4.046446e-05
2.733398e-05
1.761725e-05
1.079074e-05
6.264232e-06
3.390381e-06
1.617933e-06
5.81054e-07
0.0003727599
0.0003358625
0.0003022359
0.0002682279
0.0002319305
0.0001928641
0.000153618
0.0001160362
8.222026e-05
5.406169e-05
3.274324e-05
1.827928e-05
9.476858e-06
4.583891e-06
2.045939e-06
8.423828e-07
3.224601e-07
1.150349e-07
3.722424e-08
1.021684e-08
0.0003368023
0.0002976862
0.000258002
0.0002171411
0.0001758842
0.0001354758
9.790301e-05
6.537677e-05
3.969532e-05
2.156471e-05
1.029943e-05
4.298304e-06
1.584258e-06
5.262391e-07
1.611159e-07
4.656704e-08
1.316794e-08
3.825066e-09
1.140001e-09
3.367073e-10
0.000347296
0.0003095387
0.0002734414
0.0002359028
0.000196301
0.0001546894
0.0001139568
7.841262e-05
5.04525e-05
3.088502e-05
1.874486e-05
1.192472e-05
8.241463e-06
6.127133e-06
4.696189e-06
3.537156e-06
2.521149e-06
1.632453e-06
8.954548e-07
3.499296e-07
0.0003241636
0.0002864776
0.0002536566
0.0002258944
0.0002026396
0.0001831356
0.0001666795
0.0001526981
0.0001407449
0.0001305681
0.0001220382
0.000115056
0.000109497
0.0001051594
0.0001017522
9.895699e-05
9.654033e-05
9.445336e-05
9.289064e-05
9.21371e-05
0.0003178496
0.0002803831
0.0002479517
0.0002205408
0.0001974411
0.0001779149
0.0001613781
0.0001473231
0.0001353291
0.000125027
0.0001161141
0.0001083276
0.0001014441
9.527126e-05
8.971213e-05
8.481666e-05
8.076236e-05
7.776265e-05
7.594961e-05
7.52642e-05
0.0003413731
0.0003056084
0.0002751371
0.0002470441
0.0002167893
0.0001836558
0.0001475715
0.0001126482
8.268159e-05
5.905476e-05
4.153739e-05
2.88724e-05
1.990011e-05
1.365782e-05
9.337298e-06
6.292493e-06
4.091259e-06
2.47666e-06
1.302628e-06
4.968586e-07
0.0003064816
0.0002677854
0.0002296253
0.0001904158
0.0001512837
0.0001135774
7.929578e-05
5.084102e-05
2.988859e-05
1.629894e-05
8.402471e-06
4.139321e-06
1.975153e-06
9.266481e-07
4.318832e-07
1.991952e-07
8.899523e-08
3.699532e-08
1.344257e-08
3.89184e-09
0.0002681555
0.0002277484
0.0001870714
0.000147345
0.0001099696
7.67271e-05
4.935411e-05
2.898748e-05
1.552894e-05
7.64519e-06
3.531316e-06
1.584405e-06
7.184473e-07
3.378007e-07
1.63997e-07
7.980491e-08
3.729524e-08
1.596186e-08
5.88156e-09
1.687884e-09
0.0003280428
0.0002919083
0.0002601724
0.000229061
0.0001952779
0.0001583124
0.0001192148
8.426346e-05
5.642676e-05
3.657575e-05
2.365803e-05
1.575455e-05
1.0986e-05
7.965888e-06
5.858794e-06
4.239269e-06
2.927341e-06
1.857526e-06
1.013541e-06
3.989964e-07
0.000302557
0.0002650494
0.0002326619
0.000205429
0.0001826924
0.0001636964
0.0001477393
0.0001342607
0.0001228608
0.0001132732
0.0001053204
9.884152e-05
9.361042e-05
8.934829e-05
8.574632e-05
8.2561e-05
7.972639e-05
7.736477e-05
7.572115e-05
7.49956e-05
0.0002990095
0.0002615618
0.000229303
0.0002022186
0.0001796184
0.0001607562
0.0001449497
0.0001316427
0.0001204088
0.0001109291
0.0001029537
9.624662e-05
9.052041e-05
8.549209e-05
8.094504e-05
7.68353e-05
7.328594e-05
7.051791e-05
6.874497e-05
6.803277e-05
0.0003213815
0.0002853887
0.0002540519
0.0002241381
0.0001915909
0.0001559363
0.0001186284
8.551817e-05
5.913872e-05
4.006597e-05
2.708267e-05
1.853203e-05
1.293871e-05
9.193305e-06
6.560671e-06
4.607121e-06
3.103888e-06
1.935984e-06
1.046656e-06
4.127525e-07
0.0002675841
0.0002275616
0.0001875323
0.0001483894
0.0001113716
7.809986e-05
5.046505e-05
2.989678e-05
1.636224e-05
8.429933e-06
4.159149e-06
2.007879e-06
9.685231e-07
4.727487e-07
2.328616e-07
1.136044e-07
5.319116e-08
2.294366e-08
8.59498e-09
2.536091e-09
0.000263724
0.0002235652
0.0001833731
0.0001441788