/*--------------------------------*- C++ -*----------------------------------*\
| =========                 |                                                 |
| \\      /  F ield         | OpenFOAM: The Open Source CFD Toolbox           |
|  \\    /   O peration     | Version:  4.0                                   |
|   \\  /    A nd           | Web:      www.OpenFOAM.org                      |
|    \\/     M anipulation  |                                                 |
\*---------------------------------------------------------------------------*/
FoamFile
{
    version     2.0;
    format      ascii;
    class       volScalarField;
    location    "120/fuel";
    object      YCO2fuel;
}
// * * * * * * * * * * * * * * * * * * * * * * * * * * * * * * * * * * * * * //

dimensions      [0 0 0 0 0 0 0];

internalField   nonuniform List<scalar> 
39776
(
0.003191673
0.003162426
0.001813709
0.001783767
0.0009350966
0.0009043492
0.0008520599
0.000821208
0.0008620784
0.0008312441
0.0009277261
0.0008970472
0.001653845
0.001623889
0.001607509
0.001577516
0.000921407
0.0008907193
0.0008592459
0.0008284746
0.0008582132
0.0008275476
0.0009212552
0.0008906754
0.001618874
0.001588996
0.00161201
0.001582125
0.0009203903
0.0008898073
0.0008570402
0.00082641
0.0008573399
0.0008267105
0.0009199893
0.0008894453
0.001613849
0.001584004
0.00161139
0.001581541
0.0009196147
0.0008890698
0.0008571093
0.0008264807
0.0008570963
0.0008264683
0.0009195723
0.0008890294
0.00161143
0.001581585
0.001615123
0.001585249
0.0009208172
0.0008902437
0.0008580882
0.0008274308
0.0008577544
0.0008270971
0.000920371
0.0008897991
0.001614811
0.001584861
0.001622245
0.0015923
0.0009232597
0.0008926111
0.0008599545
0.0008292213
0.0008583626
0.0008276278
0.0009202507
0.0008896024
0.001605453
0.001575499
0.001652049
0.001622129
0.0009265518
0.0008959097
0.0008592906
0.0008285593
0.000847204
0.0008165358
0.0009294252
0.0008988685
0.001802539
0.001772791
0.003172073
0.003143023
0.002756851
0.002727627
0.001817241
0.001787532
0.001104683
0.001074368
0.001016259
0.0009858492
0.00102916
0.000998768
0.001123447
0.001093159
0.001824713
0.001795026
0.00176703
0.0017373
0.001111848
0.001081545
0.001027785
0.0009973902
0.001029052
0.0009986605
0.001117775
0.001087451
0.001794754
0.001765016
0.001783183
0.001753434
0.001115571
0.001085241
0.001029127
0.0009987027
0.00103123
0.001000732
0.001118596
0.001088194
0.001792641
0.001762824
0.001788642
0.00175882
0.001117863
0.001087457
0.001031073
0.001000573
0.001031043
0.001000545
0.001117775
0.001087374
0.00178862
0.001758801
0.001792818
0.001763
0.001117146
0.001086818
0.001029723
0.0009992998
0.001029248
0.0009988256
0.001115603
0.001085277
0.001783893
0.001754147
0.001794952
0.001765242
0.00111782
0.001087523
0.001029541
0.0009991491
0.001027518
0.0009971253
0.001111357
0.001081058
0.001766182
0.001736455
0.001824044
0.001794355
0.001123014
0.001092724
0.001028242
0.0009978498
0.001014686
0.0009842803
0.001103133
0.001072797
0.001813895
0.001784166
0.002750381
0.002721161
0.003023156
0.002994049
0.002110024
0.002080469
0.001293461
0.001263233
0.001167372
0.001137029
0.001183637
0.001153314
0.001320463
0.001290269
0.002075062
0.002045428
0.002019141
0.00198947
0.001303569
0.001273356
0.001181062
0.001150735
0.001183236
0.001152913
0.001312441
0.00128224
0.002047262
0.002017687
0.002029917
0.002000328
0.001305975
0.00127584
0.001180655
0.001150405
0.001181765
0.001151518
0.001308675
0.001278577
0.002040681
0.002011132
0.002034996
0.00200544
0.001307206
0.001277102
0.001180838
0.001150619
0.001180788
0.00115057
0.00130708
0.001276981
0.002034958
0.002005405
0.002040817
0.002011264
0.001308462
0.001278359
0.001181461
0.001151212
0.001180682
0.001150434
0.001305962
0.001275832
0.002030374
0.002000788
0.002047897
0.00201832
0.00131283
0.001282625
0.001183559
0.001153234
0.001180887
0.001150561
0.001303166
0.001272957
0.002018476
0.001988808
0.002074571
0.002044934
0.001320205
0.001290007
0.00118305
0.001152727
0.001166298
0.00113596
0.001291907
0.00126169
0.00210674
0.002077195
0.003018037
0.002988932
0.003424613
0.003395658
0.002532694
0.002503362
0.001507357
0.00147739
0.001316364
0.001286277
0.001331582
0.001301513
0.001530479
0.001500573
0.002350505
0.002321129
0.002308983
0.002279581
0.001501514
0.00147158
0.001326351
0.001296276
0.001330407
0.001300337
0.001519642
0.001489728
0.002329262
0.002299874
0.002316473
0.002287045
0.001508302
0.001478342
0.001328318
0.001298214
0.001330201
0.001300101
0.00151631
0.001486362
0.002327575
0.002298081
0.00232322
0.00229372
0.001513798
0.001483765
0.001331028
0.001300849
0.00133096
0.001300783
0.001513653
0.001483626
0.002323162
0.002293665
0.002327831
0.002298333
0.001518116
0.001488086
0.001331864
0.001301685
0.001328369
0.001298266
0.001508261
0.001478306
0.002316858
0.002287434
0.002330767
0.002301346
0.001520812
0.001490862
0.001330705
0.001300633
0.001326221
0.001296148
0.001501169
0.00147124
0.002308419
0.00227902
0.002350163
0.002320784
0.001530303
0.001500391
0.001331148
0.001301078
0.00131546
0.001285378
0.001505105
0.001475179
0.002528564
0.002499273
0.00342005
0.003391096
0.003833193
0.003804373
0.002938514
0.002909361
0.001713734
0.001683918
0.001453033
0.001423034
0.001465945
0.001435885
0.001711523
0.001681645
0.002625557
0.002596211
0.00259486
0.002565495
0.0016809
0.001650995
0.001459351
0.001429284
0.001464931
0.001434871
0.00170295
0.001673066
0.002608841
0.002579485
0.002597856
0.002568491
0.001683811
0.001653983
0.001458913
0.001428922
0.00146187
0.001431884
0.001695898
0.001666085
0.002603358
0.002574074
0.002598759
0.002569499
0.001688109
0.001658313
0.001459895
0.001429935
0.001459816
0.001429858
0.001687939
0.001658149
0.002598646
0.002569387
0.002602782
0.002573522
0.001695773
0.001665981
0.001461665
0.001431705
0.001458264
0.001428303
0.001683779
0.001653948
0.002596038
0.002566743
0.002607512
0.002578218
0.001701876
0.001672053
0.001463623
0.001433628
0.001459998
0.001429898
0.001681466
0.001651531
0.002595509
0.002566112
0.002626488
0.002597102
0.001712438
0.001682519
0.001468036
0.001437878
0.001456415
0.00142625
0.001716505
0.001686531
0.002940802
0.002911492
0.003835403
0.003806417
0.004248788
0.00421991
0.003348136
0.003318957
0.001945313
0.001915459
0.001588179
0.001558098
0.001590398
0.001560325
0.001885168
0.001855354
0.002885508
0.002856224
0.002863007
0.002833709
0.001859259
0.001829422
0.001581591
0.00155157
0.001586449
0.001556519
0.001880386
0.001850654
0.002870378
0.002841171
0.002860108
0.002830892
0.001854749
0.001824992
0.001578291
0.001548383
0.001582374
0.001552472
0.001869651
0.001839942
0.002865019
0.002835839
0.002861573
0.002832387
0.001862349
0.00183263
0.001580486
0.001550581
0.001580395
0.001550492
0.001862152
0.00183244
0.002861406
0.002832226
0.002865709
0.002836503
0.00187044
0.001840702
0.001583032
0.001553104
0.001578617
0.001548689
0.001854456
0.001824715
0.002861153
0.002831892
0.002871935
0.002842674
0.001881723
0.001851933
0.001587442
0.001557458
0.001580897
0.001550912
0.001858284
0.001828488
0.002861806
0.002832546
0.002884613
0.002855359
0.001884471
0.001854685
0.001588523
0.001558542
0.001584835
0.001554915
0.001940971
0.001911285
0.003341835
0.00331282
0.004241881
0.004213154
0.004661
0.004632384
0.003724772
0.003695898
0.002139877
0.002110314
0.001702696
0.001672878
0.001696478
0.001666663
0.002035431
0.002005829
0.003127724
0.003098657
0.003109684
0.003080606
0.002003207
0.001973579
0.001685185
0.001655363
0.001693036
0.001663222
0.002030632
0.002001004
0.003118035
0.00308894
0.003107858
0.003078755
0.002001175
0.001971522
0.001684322
0.001654474
0.001690433
0.001660532
0.002019371
0.001989677
0.003114933
0.003085779
0.003112347
0.003083187
0.002014589
0.001984885
0.001689177
0.001659273
0.00168908
0.001659179
0.002014382
0.001984685
0.003112172
0.003083017
0.003115154
0.003085996
0.002018278
0.001988635
0.001689276
0.001659431
0.001684253
0.001654409
0.002000973
0.001971328
0.003107965
0.003078867
0.003117925
0.003088852
0.002030578
0.002000968
0.001693282
0.001663466
0.001684912
0.001655093
0.002002639
0.00197302
0.003109008
0.003079935
0.003127396
0.003098326
0.002035253
0.002005647
0.001695867
0.001666053
0.001701413
0.001671606
0.002138188
0.002108621
0.003721557
0.003692677
0.004656692
0.004628082
0.005072604
0.005044094
0.004081601
0.004052816
0.002319524
0.002289974
0.001810978
0.001781151
0.001796525
0.001766697
0.00217383
0.002144225
0.003357288
0.003328228
0.003340632
0.003311562
0.002131352
0.002101717
0.001780408
0.001750569
0.001789632
0.001759803
0.002162748
0.002133139
0.003346391
0.003317386
0.003336387
0.003307373
0.00213182
0.002102245
0.001778552
0.001748772
0.001783704
0.00175393
0.002146856
0.002117322
0.00334106
0.003312076
0.003339543
0.003310554
0.002145932
0.002116389
0.001782896
0.001753143
0.001782793
0.001753044
0.002145707
0.002116172
0.003339354
0.00331037
0.003341261
0.003312273
0.002146796
0.002117254
0.001783522
0.001753745
0.001778456
0.001748679
0.002131624
0.002102057
0.003336394
0.003307385
0.003346711
0.003317701
0.002163076
0.002133459
0.001789839
0.001760007
0.00178022
0.001750385
0.002130873
0.002101245
0.003340015
0.003310949
0.003357054
0.00332799
0.002173793
0.002144183
0.001796111
0.001766283
0.001809914
0.001780098
0.002317596
0.002288066
0.004078026
0.00404926
0.00506853
0.005040025
0.005473618
0.005445203
0.004409318
0.004380629
0.002471016
0.002441601
0.001904328
0.001874646
0.001882908
0.001853221
0.002291147
0.00226169
0.003562506
0.003533602
0.003545959
0.003517045
0.002242764
0.002213274
0.001862569
0.001832871
0.001872942
0.001843253
0.00227915
0.002249689
0.003553173
0.003524267
0.003543402
0.003514464
0.002244438
0.002214926
0.001861998
0.001832275
0.001867181
0.001837464
0.002260572
0.002231075
0.003550384
0.003521394
0.003550019
0.003521025
0.002264522
0.002234961
0.001869552
0.001839773
0.001869448
0.001839673
0.002264301
0.002234747
0.003549835
0.003520844
0.003550679
0.003521684
0.002262151
0.002232588
0.001868578
0.001838799
0.00186196
0.001832239
0.002244261
0.002214755
0.003543406
0.003514471
0.003554291
0.003525356
0.002280107
0.002250613
0.001873162
0.00184347
0.001862386
0.001832691
0.002242231
0.002212749
0.003545434
0.003516524
0.003562424
0.003533516
0.002291263
0.0022618
0.001882507
0.001852821
0.001903357
0.001873687
0.002468393
0.002439021
0.004405034
0.004376387
0.005469788
0.005441378
0.005856732
0.0058284
0.004712572
0.004683964
0.002609556
0.002580204
0.001991036
0.001961383
0.001964071
0.00193435
0.002398478
0.002368991
0.0037517
0.003722777
0.003735467
0.003706535
0.002350732
0.002321215
0.001941384
0.001911651
0.001951961
0.001922237
0.002387464
0.002357974
0.003742501
0.003713575
0.003731729
0.003702794
0.002348868
0.002319408
0.001938243
0.001908566
0.001943387
0.001913717
0.002366813
0.00233737
0.003735502
0.003706631
0.00373445
0.003705598
0.002365498
0.00233607
0.001944076
0.001914427
0.001943968
0.001914322
0.002365264
0.002335844
0.00373424
0.003705391
0.003735074
0.003706221
0.002366775
0.002337347
0.00194325
0.0019136
0.001937668
0.001908018
0.002348878
0.002319418
0.003730069
0.003701188
0.003741316
0.003712434
0.002386433
0.002356984
0.001950885
0.001921208
0.001941849
0.001912086
0.00235082
0.002321278
0.003736051
0.003707091
0.003752832
0.003723873
0.002399666
0.002370142
0.001965837
0.001936028
0.001993693
0.001963903
0.002611246
0.002581767
0.004713957
0.004685224
0.005858777
0.005830307
0.006225158
0.006196733
0.004998398
0.004969692
0.00274065
0.002711181
0.002074687
0.002044907
0.002039789
0.002009998
0.002495428
0.002465926
0.003922246
0.003893315
0.003907057
0.003878118
0.002452266
0.002422737
0.002014768
0.001985017
0.002022318
0.001992656
0.002481767
0.002452342
0.003909916
0.003881062
0.00389997
0.003871109
0.002450497
0.002421049
0.002010012
0.001980369
0.002015143
0.001985506
0.002469468
0.002440065
0.003903335
0.003874508
0.003899785
0.003870952
0.002458212
0.002428797
0.002013779
0.001984139
0.002013665
0.001984028
0.002457944
0.002428537
0.003899587
0.00387076
0.003904009
0.003875158
0.002470221
0.002440791
0.002015748
0.001986088
0.002010291
0.001980631
0.002450278
0.002420847
0.003900728
0.00387183
0.003911135
0.003882236
0.0024827
0.002453225
0.002023069
0.001993362
0.002013807
0.001984098
0.002450833
0.002421351
0.003905488
0.003876594
0.003921202
0.003892308
0.002494693
0.002465225
0.002037662
0.002007964
0.002071103
0.00204148
0.002735859
0.002706556
0.004991502
0.004962957
0.006218075
0.006189796
0.006560923
0.006532705
0.005255849
0.005227368
0.002858876
0.002829624
0.002146578
0.002117008
0.002104073
0.002074488
0.002580664
0.002551318
0.004069983
0.004041213
0.004056272
0.004027493
0.002542964
0.002513594
0.002079358
0.002049762
0.002086042
0.002056453
0.002563306
0.002533932
0.004058003
0.004029209
0.004052119
0.004023319
0.002550265
0.002520877
0.002079388
0.00204977
0.002084566
0.002054902
0.00256688
0.002537457
0.004057081
0.004028236
0.004052109
0.004023257
0.002548109
0.002518668
0.002081099
0.00205143
0.002080967
0.002051301
0.002547796
0.002518363
0.004051875
0.004023028
0.004057334
0.004028484
0.002566015
0.002536636
0.002083578
0.002053963
0.002079329
0.002049716
0.002550139
0.002520761
0.004052069
0.004023274
0.004057745
0.004028968
0.002563103
0.002533744
0.002086184
0.002056592
0.002079008
0.002049416
0.002542228
0.002512868
0.004055372
0.0040266
0.004069581
0.004040808
0.002580515
0.002551165
0.002103353
0.002073772
0.002145102
0.002115546
0.002856986
0.002827737
0.005252186
0.005223707
0.006556299
0.006528089
0.006876988
0.006848831
0.005499837
0.005471394
0.002976613
0.002947338
0.002219149
0.002189547
0.002169087
0.002139468
0.002665286
0.002635907
0.004207397
0.004178597
0.004194851
0.004166044
0.002629406
0.002600005
0.002142882
0.002113251
0.002147683
0.002118058
0.002639956
0.002610568
0.00417962
0.004150865
0.004188413
0.004159656
0.002646484
0.002617144
0.002145588
0.002116011
0.002146989
0.002117416
0.002649811
0.002620502
0.004191939
0.004163208
0.004187067
0.00415833
0.002632957
0.002603631
0.002142729
0.002113172
0.002142589
0.002113035
0.002632615
0.002603298
0.004186824
0.004158092
0.004192175
0.00416344
0.002649869
0.002620551
0.002146865
0.002117288
0.002145501
0.002115927
0.002646316
0.002616984
0.004188296
0.004159544
0.004179792
0.004151032
0.002640158
0.002610763
0.002147804
0.002118175
0.00214266
0.002113032
0.002628963
0.002599571
0.004194094
0.004165293
0.00420706
0.004178258
0.002664996
0.002635612
0.002168527
0.00213891
0.002217791
0.002188202
0.00297439
0.002945138
0.005495877
0.005467455
0.00687259
0.006844441
0.007173341
0.007145239
0.00573264
0.00570425
0.003093102
0.003063925
0.002287598
0.002258107
0.00222886
0.002199349
0.002742164
0.002712894
0.004328098
0.004299407
0.004316747
0.004288048
0.002709175
0.002679884
0.00220078
0.002171256
0.002203157
0.002173637
0.002709221
0.00267994
0.004284984
0.004256281
0.004310589
0.004281869
0.002738544
0.002709246
0.002209311
0.00217977
0.002207128
0.002177589
0.002727643
0.002698348
0.004317614
0.004288849
0.004313664
0.004284893
0.002716962
0.002687602
0.002204595
0.002174999
0.002204448
0.002174855
0.00271664
0.002687287
0.004313428
0.004284661
0.004317933
0.004289163
0.002729151
0.002699795
0.00220841
0.002178815
0.002209262
0.002179724
0.002738336
0.002709045
0.004310495
0.004281778
0.004285922
0.004257194
0.002710077
0.002680765
0.002203309
0.002173786
0.002200612
0.002171091
0.002708834
0.002679551
0.004316137
0.004287443
0.004327861
0.004299166
0.002741901
0.002712625
0.002228404
0.002198894
0.00228628
0.002256802
0.0030902
0.003061067
0.005728019
0.00569967
0.007169177
0.007141081
0.007451687
0.007423632
0.005948986
0.005920641
0.003200636
0.003171499
0.002354132
0.002324654
0.00228759
0.002258035
0.002811175
0.002781861
0.004440697
0.004411965
0.004432031
0.004403292
0.002790243
0.002760915
0.002259492
0.002229925
0.002258808
0.002229243
0.002777729
0.002748403
0.004385096
0.004356348
0.004422422
0.00439368
0.00282044
0.002791176
0.002268785
0.002239274
0.002263325
0.002233814
0.00279685
0.002767582
0.004428208
0.004399524
0.004425271
0.004396601
0.002792606
0.002763349
0.002260299
0.002230804
0.002260136
0.002230644
0.002792221
0.002762973
0.004425013
0.004396346
0.004427911
0.00439924
0.002797011
0.002767755
0.002263288
0.002233793
0.002268266
0.002238778
0.002820382
0.002791116
0.004420867
0.004392171
0.004383948
0.004355236
0.002777045
0.002747752
0.00225795
0.002228424
0.002260178
0.002230575
0.002790845
0.002761485
0.004432824
0.004404053
0.004441899
0.004413125
0.002812187
0.002782829
0.002289465
0.002259822
0.002356434
0.002326826
0.003202021
0.003172765
0.005949948
0.005921486
0.007453263
0.007425078
0.00772199
0.007693814
0.006169456
0.006140988
0.003325258
0.003295995
0.002426815
0.002397199
0.002347067
0.002317422
0.002877474
0.002848116
0.004539482
0.004510707
0.00454009
0.004511311
0.002879283
0.002849921
0.002320412
0.002290805
0.002312439
0.002282917
0.002844124
0.00281484
0.004487973
0.004459268
0.004525502
0.004496804
0.002901131
0.002871863
0.002327115
0.002297626
0.002318206
0.002288717
0.002865519
0.002836273
0.004530574
0.00450191
0.004530997
0.004502329
0.002874424
0.002845177
0.002318494
0.002289004
0.002318315
0.002288828
0.002873965
0.002844725
0.004530677
0.004502015
0.004531278
0.004502592
0.002866452
0.002837181
0.002318845
0.002289335
0.002327359
0.002297857
0.002900739
0.002871492
0.004525988
0.004497258
0.004488737
0.004459992
0.002845096
0.002815769
0.002313126
0.002283565
0.002319204
0.00228965
0.002877605
0.0028483
0.004538273
0.004509547
0.004538314
0.004509584
0.002876425
0.002847111
0.002344837
0.002315292
0.002422877
0.002393422
0.003319993
0.003290899
0.006161979
0.006133676
0.007714254
0.007686227
0.007970773
0.00794278
0.006371145
0.006342881
0.003439735
0.003410679
0.002490988
0.002461573
0.00239779
0.00236834
0.002933989
0.002904775
0.004613588
0.004584951
0.004633142
0.004604506
0.002961853
0.002932646
0.002376022
0.002346565
0.002363771
0.002334312
0.002907579
0.002878338
0.004581414
0.00455275
0.004621195
0.004592537
0.002974679
0.002945457
0.002383059
0.002353586
0.002372259
0.002342735
0.002930709
0.002901428
0.004625682
0.004596982
0.004631437
0.004602735
0.002954438
0.002925159
0.002376733
0.002347208
0.002376541
0.002347019
0.002953933
0.002924662
0.004631157
0.004602459
0.004626097
0.004597393
0.002930081
0.002900841
0.002371398
0.002341919
0.002383005
0.002353535
0.002974503
0.00294529
0.004620925
0.004592272
0.004580692
0.004552044
0.002907411
0.002878182
0.002363895
0.002334434
0.002375497
0.002346044
0.00296085
0.002931651
0.004632213
0.004603584
0.004613404
0.004584764
0.002933744
0.002904525
0.002396979
0.002367534
0.002489205
0.002459806
0.003437216
0.003408166
0.0063668
0.00633854
0.007965577
0.007937593
0.008220632
0.008192679
0.006600344
0.006572106
0.003608694
0.003579629
0.002573873
0.002544429
0.002457153
0.002427665
0.003000193
0.002970938
0.004705458
0.004676778
0.00473195
0.004703274
0.003070924
0.003041693
0.002442504
0.002413013
0.00242192
0.002392422
0.002989655
0.0029604
0.004684393
0.004655758
0.004718276
0.004689646
0.003066714
0.003037531
0.002444824
0.002415383
0.002429306
0.002399861
0.003010868
0.00298169
0.004717888
0.004689282
0.00472722
0.004698612
0.003049531
0.003020361
0.002438457
0.002409034
0.002438256
0.002408835
0.003049017
0.003019855
0.004726945
0.004698341
0.004718265
0.004689654
0.003011125
0.002981939
0.002429278
0.00239983
0.002444764
0.002415327
0.003066573
0.003037398
0.00471795
0.004689324
0.004684177
0.004655538
0.00298973
0.002960467
0.002422
0.002392499
0.002442056
0.002412568
0.003069994
0.003040772
0.004731166
0.004702495
0.004705425
0.004676743
0.0030001
0.002970841
0.002456515
0.002427031
0.002572302
0.002542872
0.003605953
0.003576913
0.006595733
0.006567517
0.008215634
0.008187689
0.008492829
0.008464918
0.006891876
0.006863692
0.003870309
0.003841379
0.002680076
0.002650749
0.002524755
0.002495368
0.003092741
0.003063592
0.004804626
0.004776041
0.004837371
0.00480879
0.003208558
0.00317945
0.002517615
0.002488229
0.002487483
0.002458087
0.003100728
0.003071587
0.004791919
0.004763332
0.004824147
0.004795543
0.003188608
0.003159472
0.002516138
0.002486732
0.002497164
0.002467752
0.003126666
0.003097515
0.004822172
0.004793525
0.004834162
0.004805513
0.0031725
0.003143309
0.00251131
0.002481852
0.002511104
0.002481649
0.003172008
0.003142825
0.0048339
0.004805256
0.004822609
0.004793957
0.003128303
0.003099094
0.002498475
0.00246901
0.002516121
0.002486717
0.00318844
0.003159313
0.004823865
0.004795265
0.004792512
0.004763901
0.003101395
0.003072225
0.002487584
0.002458184
0.002517229
0.002487846
0.003207735
0.003178635
0.00483673
0.004808154
0.004804648
0.004776059
0.003092759
0.003063605
0.002524213
0.00249483
0.002678561
0.002649247
0.003867021
0.003838134
0.006886776
0.006858633
0.008488129
0.008460224
0.008818143
0.008790278
0.007238001
0.007209877
0.004169178
0.004140336
0.002810447
0.002781154
0.00260799
0.002578571
0.003213771
0.003184598
0.004926419
0.004897794
0.00496755
0.004938932
0.00336647
0.003337351
0.002607567
0.002578151
0.002567629
0.002538199
0.003235835
0.003206675
0.004920399
0.004891774
0.004952151
0.00492353
0.003331324
0.003302239
0.002599174
0.002569803
0.002577222
0.002547844
0.003264783
0.003235681
0.004943694
0.004915123
0.004956562
0.004928008
0.003310371
0.003281298
0.002592082
0.002562728
0.002591881
0.00256253
0.003309922
0.003280857
0.004956307
0.004927756
0.004943514
0.004914955
0.003265009
0.003235916
0.00257725
0.002547886
0.002598683
0.002569333
0.003331235
0.003302147
0.004950583
0.004922001
0.00491928
0.004890686
0.003235166
0.003206033
0.002566867
0.002537469
0.002608355
0.002578895
0.003367081
0.003337921
0.004968759
0.004940099
0.004928234
0.00489956
0.003215265
0.003186039
0.002609988
0.002580475
0.002812697
0.002783273
0.004170419
0.004141458
0.007239111
0.007210868
0.008819896
0.008791897
0.009324929
0.009296965
0.00793577
0.007907593
0.005020156
0.004991376
0.003059717
0.003030341
0.002785061
0.00275559
0.00355932
0.003530197
0.005136164
0.005107512
0.005194101
0.005165459
0.003774664
0.003745611
0.002778263
0.002748843
0.002730559
0.002701211
0.003606221
0.003577207
0.005137867
0.005109304
0.00517184
0.005143281
0.003711308
0.003682322
0.002763168
0.002733862
0.002740371
0.002711059
0.003641801
0.00361283
0.005159843
0.005131316
0.00517411
0.005145581
0.003686501
0.00365754
0.002755755
0.002726448
0.002755545
0.002726242
0.003686076
0.003657123
0.005173788
0.005145267
0.005160607
0.005132059
0.003642686
0.003613691
0.002741018
0.002711686
0.00276335
0.002734031
0.003710627
0.003681664
0.005172238
0.005143653
0.005138801
0.005110203
0.00360721
0.003578157
0.002731191
0.002701809
0.002776732
0.002747372
0.003772559
0.003743571
0.005191833
0.005163252
0.005134456
0.005105858
0.00355798
0.003528909
0.002782372
0.002753011
0.003054992
0.003025786
0.00501326
0.004984656
0.007926632
0.007898624
0.00931559
0.009287779
0.01015824
0.01013053
0.008991653
0.008963804
0.006334184
0.006305876
0.003627561
0.003598558
0.00321913
0.003190003
0.004201482
0.00417269
0.005569891
0.005541459
0.005642205
0.005613785
0.00443464
0.004405913
0.003201633
0.003172506
0.00314645
0.003117308
0.004259113
0.004230325
0.005585353
0.005556908
0.005619449
0.005591006
0.004355396
0.004326628
0.003181948
0.003152796
0.003159662
0.003130458
0.004296494
0.00426767
0.005610027
0.005581542
0.005623188
0.005594701
0.004331905
0.004303083
0.003175278
0.003146076
0.003175052
0.003145855
0.004331491
0.004302677
0.005622883
0.0055944
0.005610225
0.005581735
0.004295467
0.004266682
0.003158518
0.003129358
0.003181694
0.003152546
0.00435471
0.004325951
0.005619009
0.005590572
0.005584811
0.005556382
0.004259022
0.004230245
0.003146574
0.003117429
0.003200935
0.003171814
0.004433446
0.004404729
0.005640951
0.005612538
0.00556912
0.005540687
0.004200835
0.00417204
0.003217891
0.003188771
0.003624899
0.003595915
0.00632964
0.00630134
0.008985791
0.008957945
0.01015177
0.01012407
0.003106852
0.003027787
0.002952151
0.002880481
0.002813222
0.002750731
0.002693271
0.002641014
0.002594036
0.002552326
0.002515786
0.002484245
0.002457465
0.002435156
0.002416992
0.002402624
0.002391699
0.002383881
0.002378864
0.002376403
0.00172683
0.001643505
0.001562478
0.001485103
0.001412486
0.001345507
0.00128484
0.001230948
0.001184088
0.001144306
0.001111449
0.001085174
0.001064978
0.001050223
0.001040164
0.001033985
0.001030821
0.001029782
0.001029971
0.001030502
0.0008458591
0.0007586263
0.0006712498
0.0005849789
0.000501344
0.0004220075
0.000348577
0.0002824122
0.0002244605
0.0001751564
0.0001344036
0.0001016377
7.594952e-05
5.623519e-05
4.134172e-05
3.018243e-05
2.181151e-05
1.545795e-05
1.052957e-05
6.589596e-06
0.0007625368
0.000676147
0.0005906304
0.0005071523
0.0004271553
0.0003521964
0.0002837524
0.0002230251
0.0001707853
0.0001272867
9.226542e-05
6.501867e-05
4.453744e-05
2.965931e-05
1.920934e-05
1.210726e-05
7.43242e-06
4.44892e-06
2.598539e-06
1.481921e-06
0.0007726071
0.0006863114
0.0006008889
0.000517442
0.0004373436
0.0003620896
0.0002931196
0.0002316333
0.0001784362
0.0001338476
9.768568e-05
6.933006e-05
4.783965e-05
3.209681e-05
2.094325e-05
1.329473e-05
8.213545e-06
4.939924e-06
2.892335e-06
1.64781e-06
0.0008386902
0.0007518192
0.0006649001
0.0005791202
0.0004959596
0.0004170446
0.0003439635
0.0002780734
0.0002203344
0.000171204
0.0001306138
9.802596e-05
7.255185e-05
5.309975e-05
3.85227e-05
2.773157e-05
1.977093e-05
1.385667e-05
9.380647e-06
5.893735e-06
0.001566951
0.001485094
0.001406314
0.001331412
0.00126104
0.001195723
0.001135861
0.001081734
0.001033499
0.000991186
0.0009547047
0.0009238524
0.0008983286
0.0008777518
0.0008616777
0.0008496152
0.000841041
0.0008354105
0.0008321666
0.0008307484
0.001520505
0.001438377
0.001359222
0.00128389
0.001213076
0.001147342
0.00108712
0.001032716
0.0009843054
0.0009419313
0.0009055064
0.0008748234
0.0008495695
0.0008293446
0.0008136801
0.0008020567
0.0007939198
0.0007886912
0.0007857792
0.0007845866
0.0008323468
0.0007455257
0.0006587396
0.00057318
0.0004903244
0.0004117893
0.0003391473
0.0002737358
0.000216494
0.0001678593
0.0001277463
9.560396e-05
7.053515e-05
5.144398e-05
3.718019e-05
2.665532e-05
1.891958e-05
1.319696e-05
8.886143e-06
5.54356e-06
0.0007699574
0.0006838293
0.0005985688
0.0005152829
0.0004353492
0.0003602678
0.0002914803
0.0002301854
0.0001771852
0.0001327925
9.681857e-05
6.863571e-05
4.729729e-05
3.168233e-05
2.063455e-05
1.307271e-05
8.060529e-06
4.838874e-06
2.828529e-06
1.609482e-06
0.0007692312
0.0006833911
0.0005984036
0.0005153659
0.0004356444
0.0003607288
0.0002920536
0.0002308159
0.0001778214
0.0001333923
9.73518e-05
6.908574e-05
4.765959e-05
3.196173e-05
2.084186e-05
1.322143e-05
8.162682e-06
4.906204e-06
2.871152e-06
1.635388e-06
0.0008325077
0.0007459627
0.0006594186
0.0005740592
0.0004913555
0.0004129199
0.0003403245
0.0002749098
0.0002176215
0.0001689062
0.000128689
9.642969e-05
7.12406e-05
5.203327e-05
3.766247e-05
2.704242e-05
1.922573e-05
1.343465e-05
9.065885e-06
5.673897e-06
0.001532205
0.001450469
0.001371737
0.001296832
0.001226425
0.001161057
0.001101146
0.001046985
0.0009987441
0.0009564616
0.0009200526
0.000889316
0.0008639486
0.0008435628
0.0008277048
0.0008158716
0.0008075255
0.0008021056
0.0007990375
0.0007977414
0.00152532
0.001443542
0.001364756
0.00128979
0.001219325
0.001153905
0.001093953
0.001039766
0.0009915157
0.0009492412
0.0009128576
0.0008821619
0.0008568483
0.0008365258
0.0008207368
0.0008089737
0.0008006944
0.0007953339
0.0007923131
0.0007910481
0.0008316337
0.0007450927
0.0006585668
0.0005732397
0.0004905815
0.0004122022
0.0003396708
0.0002743244
0.0002171054
0.0001684577
0.0001283043
9.610373e-05
7.09675e-05
5.180706e-05
3.74774e-05
2.689319e-05
1.910692e-05
1.334198e-05
8.995973e-06
5.624082e-06
0.0007681608
0.0006824197
0.0005975309
0.0005145909
0.0004349655
0.0003601434
0.000291558
0.0002304047
0.0001774879
0.0001331282
9.714786e-05
6.893228e-05
4.7547e-05
3.188107e-05
2.078524e-05
1.318227e-05
8.13651e-06
4.889285e-06
2.860576e-06
1.628999e-06
0.000768463
0.0006827252
0.0005978392
0.0005148998
0.0004352709
0.0003604397
0.0002918384
0.0002306624
0.0001777172
0.0001333253
9.731131e-05
6.906293e-05
4.76477e-05
3.195599e-05
2.083913e-05
1.321987e-05
8.161759e-06
4.905636e-06
2.870794e-06
1.635161e-06
0.0008313455
0.0007449057
0.0006584711
0.0005732235
0.0004906313
0.0004123035
0.0003398088
0.0002744849
0.0002172756
0.000168627
0.0001284645
9.624923e-05
7.109521e-05
5.191587e-05
3.756771e-05
2.696634e-05
1.916502e-05
1.338706e-05
9.029848e-06
5.648303e-06
0.001527275
0.001445617
0.001366954
0.001292107
0.001221752
0.00115643
0.001096561
0.001042439
0.000994235
0.0009519888
0.0009156159
0.0008849153
0.0008595838
0.0008392335
0.00082341
0.0008116095
0.0008032931
0.0007978992
0.0007948518
0.0007935698
0.001524805
0.00144313
0.001364443
0.001289573
0.001219194
0.001153851
0.001093966
0.001039835
0.0009916294
0.0009493893
0.0009130301
0.0008823499
0.0008570441
0.0008367232
0.0008209307
0.0008091607
0.0008008726
0.0007955027
0.0007924735
0.0007912025
0.0008309685
0.0007445304
0.000658102
0.0005728655
0.0004902892
0.000411982
0.000339512
0.000274216
0.0002170364
0.0001684183
0.0001282857
9.60988e-05
7.097078e-05
5.181461e-05
3.748659e-05
2.690243e-05
1.911546e-05
1.334949e-05
9.00236e-06
5.629399e-06
0.0007682347
0.0006824992
0.000597616
0.000514681
0.0004350591
0.0003602379
0.0002916505
0.0002304921
0.0001775673
0.0001331976
9.720626e-05
6.89795e-05
4.758376e-05
3.190866e-05
2.080525e-05
1.319636e-05
8.146062e-06
4.895542e-06
2.864545e-06
1.631443e-06
0.0007682232
0.0006824889
0.0005976071
0.0005146734
0.0004350527
0.0003602327
0.0002916463
0.0002304888
0.0001775648
0.0001331957
9.72049e-05
6.897855e-05
4.75831e-05
3.190823e-05
2.080498e-05
1.319619e-05
8.14596e-06
4.895484e-06
2.864514e-06
1.631428e-06
0.0008309318
0.000744499
0.0006580756
0.0005728438
0.0004902719
0.0004119686
0.000339502
0.0002742089
0.0002170317
0.0001684155
0.0001282844
9.609848e-05
7.097114e-05
5.181538e-05
3.748755e-05