/*--------------------------------*- C++ -*----------------------------------*\
| =========                 |                                                 |
| \\      /  F ield         | OpenFOAM: The Open Source CFD Toolbox           |
|  \\    /   O peration     | Version:  4.0                                   |
|   \\  /    A nd           | Web:      www.OpenFOAM.org                      |
|    \\/     M anipulation  |                                                 |
\*---------------------------------------------------------------------------*/
FoamFile
{
    version     2.0;
    format      ascii;
    class       volScalarField;
    location    "120/fuel";
    object      YH2Ofuel;
}
// * * * * * * * * * * * * * * * * * * * * * * * * * * * * * * * * * * * * * //

dimensions      [0 0 0 0 0 0 0];

internalField   nonuniform List<scalar> 
39776
(
0.09991319
0.09991399
0.09995067
0.09995148
0.09997457
0.0999754
0.09997683
0.09997767
0.09997655
0.09997739
0.09997477
0.0999756
0.09995502
0.09995583
0.09995628
0.0999571
0.09997494
0.09997578
0.09997663
0.09997747
0.09997666
0.09997749
0.09997494
0.09997577
0.09995597
0.09995678
0.09995616
0.09995697
0.09997497
0.0999758
0.09997669
0.09997752
0.09997668
0.09997752
0.09997498
0.09997581
0.09995611
0.09995692
0.09995617
0.09995698
0.09997499
0.09997582
0.09997669
0.09997752
0.09997669
0.09997752
0.09997499
0.09997582
0.09995617
0.09995698
0.09995607
0.09995688
0.09997496
0.09997579
0.09997666
0.0999775
0.09997667
0.0999775
0.09997497
0.0999758
0.09995608
0.09995689
0.09995588
0.09995669
0.09997489
0.09997572
0.09997661
0.09997745
0.09997665
0.09997749
0.09997497
0.0999758
0.09995633
0.09995715
0.09995507
0.09995588
0.0999748
0.09997563
0.09997663
0.09997746
0.09997696
0.09997779
0.09997472
0.09997555
0.09995098
0.09995178
0.09991373
0.09991452
0.09992502
0.09992582
0.09995057
0.09995138
0.09996995
0.09997078
0.09997236
0.09997319
0.09997201
0.09997284
0.09996944
0.09997027
0.09995037
0.09995118
0.09995194
0.09995275
0.09996976
0.09997058
0.09997205
0.09997287
0.09997201
0.09997284
0.0999696
0.09997042
0.09995119
0.099952
0.0999515
0.09995231
0.09996966
0.09997048
0.09997201
0.09997284
0.09997195
0.09997278
0.09996958
0.0999704
0.09995124
0.09995205
0.09995135
0.09995216
0.09996959
0.09997042
0.09997196
0.09997279
0.09997196
0.09997279
0.0999696
0.09997042
0.09995135
0.09995216
0.09995124
0.09995205
0.09996962
0.09997044
0.09997199
0.09997282
0.09997201
0.09997283
0.09996966
0.09997048
0.09995148
0.09995229
0.09995118
0.09995199
0.0999696
0.09997042
0.099972
0.09997282
0.09997205
0.09997288
0.09996977
0.0999706
0.09995196
0.09995277
0.09995039
0.0999512
0.09996946
0.09997028
0.09997203
0.09997286
0.0999724
0.09997323
0.09997
0.09997082
0.09995067
0.09995147
0.0999252
0.09992599
0.09991778
0.09991857
0.09994261
0.09994342
0.09996482
0.09996564
0.09996825
0.09996908
0.09996781
0.09996863
0.09996409
0.09996491
0.09994356
0.09994437
0.09994508
0.09994589
0.09996455
0.09996537
0.09996788
0.0999687
0.09996782
0.09996864
0.0999643
0.09996512
0.09994432
0.09994512
0.09994479
0.0999456
0.09996448
0.0999653
0.09996789
0.09996871
0.09996786
0.09996868
0.09996441
0.09996522
0.0999445
0.0999453
0.09994465
0.09994545
0.09996445
0.09996526
0.09996788
0.09996871
0.09996789
0.09996871
0.09996445
0.09996527
0.09994465
0.09994546
0.09994449
0.0999453
0.09996441
0.09996523
0.09996787
0.09996869
0.09996789
0.09996871
0.09996448
0.0999653
0.09994478
0.09994558
0.0999443
0.0999451
0.09996429
0.09996511
0.09996781
0.09996863
0.09996788
0.09996871
0.09996456
0.09996538
0.0999451
0.09994591
0.09994357
0.09994438
0.09996409
0.09996491
0.09996782
0.09996865
0.09996828
0.0999691
0.09996486
0.09996568
0.0999427
0.09994351
0.09991792
0.09991871
0.09990686
0.09990764
0.09993112
0.09993191
0.099959
0.09995982
0.0999642
0.09996502
0.09996378
0.0999646
0.09995837
0.09995919
0.09993607
0.09993687
0.0999372
0.099938
0.09995916
0.09995998
0.09996393
0.09996474
0.09996381
0.09996463
0.09995867
0.09995948
0.09993665
0.09993745
0.099937
0.0999378
0.09995898
0.09995979
0.09996387
0.09996469
0.09996382
0.09996464
0.09995876
0.09995957
0.0999367
0.0999375
0.09993681
0.09993761
0.09995883
0.09995964
0.0999638
0.09996462
0.0999638
0.09996462
0.09995883
0.09995965
0.09993681
0.09993762
0.09993669
0.09993749
0.09995871
0.09995953
0.09996378
0.0999646
0.09996387
0.09996469
0.09995898
0.09995979
0.09993698
0.09993778
0.0999366
0.09993741
0.09995864
0.09995945
0.09996381
0.09996462
0.09996393
0.09996475
0.09995917
0.09995999
0.09993722
0.09993802
0.09993608
0.09993688
0.09995838
0.09995919
0.09996379
0.09996461
0.09996422
0.09996504
0.09995906
0.09995988
0.09993123
0.09993202
0.09990698
0.09990777
0.09989574
0.09989653
0.09992008
0.09992087
0.09995339
0.0999542
0.09996048
0.0999613
0.09996013
0.09996095
0.09995345
0.09995426
0.09992859
0.09992939
0.09992943
0.09993022
0.09995428
0.0999551
0.09996031
0.09996113
0.09996016
0.09996097
0.09995368
0.09995449
0.09992905
0.09992984
0.09992934
0.09993014
0.0999542
0.09995501
0.09996032
0.09996114
0.09996024
0.09996106
0.09995387
0.09995468
0.09992919
0.09992999
0.09992932
0.09993011
0.09995409
0.0999549
0.09996029
0.09996111
0.0999603
0.09996111
0.09995409
0.0999549
0.09992932
0.09993012
0.09992921
0.09993
0.09995388
0.09995469
0.09996024
0.09996106
0.09996034
0.09996115
0.0999542
0.09995501
0.09992939
0.09993019
0.09992908
0.09992988
0.09995371
0.09995452
0.09996019
0.09996101
0.09996029
0.09996111
0.09995427
0.09995508
0.09992941
0.09993021
0.09992856
0.09992936
0.09995342
0.09995424
0.09996007
0.09996089
0.09996039
0.09996121
0.09995331
0.09995413
0.09992002
0.09992081
0.09989568
0.09989647
0.09988444
0.09988523
0.09990894
0.09990973
0.09994709
0.0999479
0.09995681
0.09995762
0.09995674
0.09995756
0.09994873
0.09994954
0.09992152
0.09992232
0.09992213
0.09992293
0.09994943
0.09995024
0.09995698
0.0999578
0.09995685
0.09995766
0.09994886
0.09994967
0.09992193
0.09992272
0.09992221
0.099923
0.09994955
0.09995036
0.09995707
0.09995789
0.09995696
0.09995778
0.09994915
0.09994996
0.09992208
0.09992287
0.09992217
0.09992296
0.09994935
0.09995016
0.09995701
0.09995783
0.09995702
0.09995783
0.09994935
0.09995016
0.09992217
0.09992297
0.09992206
0.09992285
0.09994913
0.09994994
0.09995694
0.09995776
0.09995706
0.09995788
0.09994956
0.09995037
0.09992218
0.09992298
0.09992189
0.09992268
0.09994882
0.09994963
0.09995682
0.09995764
0.099957
0.09995782
0.09994946
0.09995027
0.09992216
0.09992296
0.09992154
0.09992234
0.09994874
0.09994955
0.09995679
0.09995761
0.09995689
0.09995771
0.09994721
0.09994802
0.09990911
0.0999099
0.09988463
0.09988541
0.09987323
0.09987401
0.09989869
0.09989948
0.0999418
0.0999426
0.09995369
0.0999545
0.09995386
0.09995467
0.09994464
0.09994545
0.09991493
0.09991572
0.09991542
0.09991621
0.09994552
0.09994632
0.09995417
0.09995498
0.09995395
0.09995476
0.09994477
0.09994558
0.09991519
0.09991599
0.09991547
0.09991626
0.09994557
0.09994638
0.09995419
0.099955
0.09995402
0.09995484
0.09994508
0.09994589
0.09991528
0.09991607
0.09991535
0.09991614
0.09994521
0.09994601
0.09995406
0.09995487
0.09995406
0.09995487
0.09994521
0.09994602
0.09991535
0.09991615
0.09991527
0.09991606
0.09994511
0.09994591
0.09995405
0.09995487
0.09995419
0.099955
0.09994558
0.09994638
0.09991547
0.09991626
0.0999152
0.09991599
0.09994477
0.09994558
0.09995395
0.09995476
0.09995417
0.09995498
0.09994553
0.09994634
0.09991544
0.09991623
0.09991494
0.09991573
0.09994464
0.09994545
0.09995388
0.09995469
0.09995372
0.09995454
0.09994184
0.09994265
0.09989878
0.09989957
0.09987335
0.09987413
0.09986203
0.09986281
0.09988899
0.09988977
0.09993691
0.09993772
0.09995075
0.09995156
0.09995114
0.09995195
0.09994088
0.09994168
0.09990869
0.09990948
0.09990914
0.09990993
0.09994203
0.09994284
0.09995158
0.09995239
0.09995132
0.09995214
0.09994118
0.09994198
0.09990899
0.09990977
0.09990926
0.09991004
0.09994202
0.09994282
0.09995163
0.09995244
0.09995149
0.0999523
0.09994161
0.09994241
0.09990913
0.09990992
0.09990917
0.09990996
0.09994163
0.09994244
0.09995151
0.09995232
0.09995151
0.09995232
0.09994164
0.09994244
0.09990917
0.09990996
0.09990912
0.09990991
0.09994161
0.09994241
0.09995149
0.0999523
0.09995163
0.09995244
0.09994202
0.09994283
0.09990925
0.09991004
0.09990898
0.09990976
0.09994117
0.09994197
0.09995132
0.09995213
0.09995158
0.09995239
0.09994204
0.09994285
0.09990916
0.09990995
0.09990869
0.09990949
0.09994088
0.09994168
0.09995115
0.09995196
0.09995077
0.09995158
0.09993697
0.09993777
0.09988909
0.09988987
0.09986215
0.09986292
0.09985113
0.0998519
0.09988007
0.09988085
0.09993279
0.09993359
0.09994821
0.09994901
0.09994879
0.0999496
0.09993768
0.09993849
0.09990311
0.09990389
0.09990356
0.09990434
0.099939
0.0999398
0.09994934
0.09995015
0.09994906
0.09994987
0.09993801
0.09993881
0.09990336
0.09990415
0.09990362
0.09990441
0.09993896
0.09993976
0.09994936
0.09995017
0.09994922
0.09995002
0.09993852
0.09993932
0.09990343
0.09990422
0.09990344
0.09990423
0.09993841
0.09993921
0.09994915
0.09994996
0.09994915
0.09994996
0.09993842
0.09993922
0.09990345
0.09990424
0.09990343
0.09990421
0.09993847
0.09993928
0.09994918
0.09994999
0.09994936
0.09995017
0.09993896
0.09993976
0.09990362
0.09990441
0.09990333
0.09990412
0.09993799
0.09993879
0.09994905
0.09994986
0.09994935
0.09995015
0.09993901
0.09993982
0.09990357
0.09990436
0.09990311
0.09990389
0.09993768
0.09993848
0.0999488
0.09994961
0.09994823
0.09994904
0.09993286
0.09993366
0.09988019
0.09988097
0.09985124
0.09985201
0.09984071
0.09984148
0.09987182
0.0998726
0.09992903
0.09992982
0.09994585
0.09994665
0.09994658
0.09994739
0.09993477
0.09993557
0.09989796
0.09989875
0.0998984
0.09989919
0.09993606
0.09993687
0.0999472
0.09994801
0.09994691
0.09994772
0.09993507
0.09993587
0.09989821
0.099899
0.0998985
0.09989929
0.09993611
0.09993692
0.09994728
0.09994809
0.09994714
0.09994795
0.09993563
0.09993643
0.0998984
0.09989918
0.09989843
0.09989921
0.09993566
0.09993646
0.09994712
0.09994793
0.09994713
0.09994793
0.09993567
0.09993647
0.09989843
0.09989922
0.09989841
0.0998992
0.09993563
0.09993643
0.09994715
0.09994795
0.0999473
0.0999481
0.09993611
0.09993692
0.09989855
0.09989933
0.09989824
0.09989903
0.09993509
0.09993589
0.09994694
0.09994775
0.09994719
0.09994799
0.09993606
0.09993686
0.09989839
0.09989917
0.09989793
0.09989872
0.09993473
0.09993553
0.09994653
0.09994734
0.09994577
0.09994658
0.09992898
0.09992978
0.09987179
0.09987257
0.09984066
0.09984143
0.09983069
0.09983146
0.09986405
0.09986483
0.09992546
0.09992626
0.09994357
0.09994438
0.09994452
0.09994533
0.09993213
0.09993293
0.09989332
0.09989411
0.09989374
0.09989452
0.0999333
0.09993411
0.0999452
0.09994601
0.099945
0.0999458
0.0999325
0.0999333
0.09989366
0.09989444
0.09989393
0.09989471
0.09993335
0.09993415
0.09994533
0.09994614
0.09994519
0.099946
0.09993283
0.09993363
0.09989383
0.09989462
0.09989393
0.09989472
0.09993314
0.09993394
0.09994523
0.09994603
0.09994523
0.09994604
0.09993315
0.09993395
0.09989394
0.09989472
0.09989382
0.0998946
0.09993281
0.09993361
0.09994517
0.09994598
0.09994532
0.09994613
0.09993336
0.09993416
0.0998939
0.09989469
0.09989362
0.09989441
0.09993247
0.09993328
0.09994498
0.09994578
0.09994523
0.09994603
0.09993334
0.09993414
0.09989378
0.09989456
0.09989335
0.09989414
0.09993215
0.09993295
0.09994458
0.09994539
0.09994367
0.09994447
0.09992559
0.09992639
0.09986424
0.09986502
0.09983088
0.09983165
0.09982155
0.09982232
0.09985705
0.09985782
0.09992224
0.09992304
0.09994162
0.09994242
0.09994277
0.09994358
0.09992981
0.09993061
0.09988931
0.09989009
0.09988968
0.09989046
0.09993084
0.09993164
0.09994344
0.09994425
0.09994326
0.09994407
0.09993028
0.09993108
0.09988963
0.09989041
0.09988979
0.09989057
0.09993064
0.09993144
0.09994344
0.09994425
0.0999433
0.09994411
0.09993018
0.09993098
0.09988965
0.09989044
0.09988979
0.09989057
0.0999307
0.0999315
0.0999434
0.0999442
0.0999434
0.09994421
0.0999307
0.0999315
0.0998898
0.09989058
0.09988964
0.09989043
0.09993021
0.09993101
0.09994333
0.09994413
0.09994344
0.09994425
0.09993064
0.09993144
0.09988979
0.09989057
0.09988963
0.09989042
0.09993029
0.09993109
0.09994326
0.09994406
0.09994345
0.09994426
0.09993085
0.09993165
0.0998897
0.09989048
0.09988931
0.0998901
0.09992981
0.09993061
0.09994279
0.0999436
0.09994166
0.09994246
0.0999223
0.09992309
0.09985715
0.09985793
0.09982168
0.09982245
0.09981296
0.09981372
0.09985041
0.09985119
0.09991904
0.09991984
0.09993964
0.09994045
0.09994101
0.09994181
0.09992751
0.09992831
0.09988557
0.09988635
0.09988591
0.09988669
0.09992849
0.09992929
0.09994172
0.09994252
0.09994159
0.09994239
0.0999282
0.099929
0.09988632
0.0998871
0.09988608
0.09988686
0.09992802
0.09992882
0.09994164
0.09994245
0.09994161
0.09994241
0.09992793
0.09992873
0.09988599
0.09988677
0.09988612
0.0998869
0.09992839
0.09992919
0.09994172
0.09994252
0.09994173
0.09994253
0.0999284
0.0999292
0.09988613
0.09988691
0.09988598
0.09988676
0.09992793
0.09992872
0.09994161
0.09994241
0.09994164
0.09994245
0.09992802
0.09992882
0.09988608
0.09988686
0.09988631
0.0998871
0.09992819
0.09992899
0.09994158
0.09994239
0.09994172
0.09994253
0.0999285
0.0999293
0.09988593
0.09988671
0.09988557
0.09988636
0.09992752
0.09992831
0.09994102
0.09994182
0.09993968
0.09994049
0.0999191
0.0999199
0.09985052
0.0998513
0.09981308
0.09981384
0.0998049
0.09980567
0.09984408
0.09984485
0.09991587
0.09991667
0.09993778
0.09993858
0.09993938
0.09994018
0.09992542
0.09992621
0.09988228
0.09988306
0.09988259
0.09988337
0.09992632
0.09992711
0.09994014
0.09994095
0.09994008
0.09994088
0.09992631
0.09992711
0.09988345
0.09988424
0.09988276
0.09988354
0.09992552
0.09992631
0.09993991
0.09994071
0.09993997
0.09994077
0.09992581
0.09992661
0.09988257
0.09988335
0.09988268
0.09988346
0.0999261
0.0999269
0.09994004
0.09994084
0.09994004
0.09994085
0.09992611
0.09992691
0.09988268
0.09988347
0.09988256
0.09988334
0.09992577
0.09992657
0.09993993
0.09994074
0.09993991
0.09994071
0.09992552
0.09992632
0.09988276
0.09988354
0.09988343
0.09988421
0.09992629
0.09992709
0.09994007
0.09994088
0.09994015
0.09994095
0.09992632
0.09992712
0.09988261
0.09988339
0.09988229
0.09988307
0.09992542
0.09992622
0.09993939
0.09994019
0.09993782
0.09993862
0.09991595
0.09991675
0.09984421
0.09984498
0.09980501
0.09980578
0.09979733
0.09979809
0.0998382
0.09983897
0.09991295
0.09991374
0.09993597
0.09993677
0.09993778
0.09993859
0.09992354
0.09992434
0.09987922
0.09988
0.09987946
0.09988024
0.09992411
0.09992491
0.09993855
0.09993935
0.09993856
0.09993937
0.09992445
0.09992525
0.09988073
0.09988152
0.09987972
0.0998805
0.09992329
0.09992408
0.09993829
0.09993909
0.09993844
0.09993924
0.09992393
0.09992472
0.09987956
0.09988034
0.09987964
0.09988042
0.09992405
0.09992484
0.09993852
0.09993933
0.09993853
0.09993933
0.09992406
0.09992485
0.09987965
0.09988043
0.09987957
0.09988035
0.09992393
0.09992472
0.09993844
0.09993924
0.09993831
0.09993911
0.09992329
0.09992409
0.09987976
0.09988054
0.09988076
0.09988154
0.09992447
0.09992526
0.09993859
0.09993939
0.09993853
0.09993933
0.09992409
0.09992489
0.09987943
0.09988021
0.09987919
0.09987997
0.09992351
0.09992431
0.09993773
0.09993854
0.09993591
0.09993671
0.09991291
0.09991371
0.09983817
0.09983895
0.09979729
0.09979805
0.09978998
0.09979074
0.0998322
0.09983298
0.09990956
0.09991036
0.099934
0.0999348
0.09993616
0.09993697
0.09992174
0.09992253
0.09987653
0.09987732
0.09987652
0.0998773
0.09992169
0.09992249
0.09993689
0.09993769
0.09993711
0.09993791
0.09992264
0.09992344
0.09987794
0.09987872
0.09987691
0.0998777
0.09992109
0.09992189
0.09993671
0.09993751
0.09993695
0.09993775
0.09992206
0.09992286
0.09987677
0.09987755
0.09987676
0.09987754
0.09992182
0.09992262
0.09993694
0.09993774
0.09993694
0.09993775
0.09992183
0.09992263
0.09987678
0.09987756
0.09987676
0.09987754
0.09992204
0.09992283
0.09993693
0.09993773
0.0999367
0.0999375
0.0999211
0.0999219
0.0998769
0.09987768
0.09987791
0.09987869
0.09992262
0.09992341
0.09993709
0.09993789
0.09993692
0.09993773
0.09992173
0.09992253
0.09987656
0.09987734
0.09987656
0.09987734
0.09992176
0.09992256
0.09993622
0.09993703
0.0999341
0.0999349
0.0999097
0.09991049
0.09983241
0.09983318
0.09979019
0.09979095
0.09978321
0.09978397
0.09982672
0.09982748
0.09990645
0.09990724
0.09993225
0.09993305
0.09993478
0.09993559
0.0999202
0.09992099
0.09987452
0.0998753
0.09987399
0.09987476
0.09991944
0.09992024
0.09993538
0.09993618
0.09993571
0.09993651
0.09992092
0.09992171
0.09987539
0.09987617
0.09987431
0.09987509
0.09991909
0.09991989
0.09993518
0.09993599
0.09993548
0.09993628
0.09992029
0.09992108
0.09987419
0.09987497
0.09987403
0.09987481
0.09991964
0.09992044
0.09993536
0.09993616
0.09993536
0.09993616
0.09991966
0.09992045
0.09987404
0.09987482
0.09987418
0.09987496
0.09992031
0.0999211
0.0999355
0.0999363
0.09993519
0.09993599
0.0999191
0.09991989
0.09987431
0.09987509
0.09987541
0.09987619
0.09992092
0.09992172
0.0999357
0.09993651
0.09993539
0.09993619
0.09991947
0.09992026
0.09987401
0.09987479
0.09987452
0.0998753
0.09992021
0.099921
0.09993481
0.09993561
0.0999323
0.0999331
0.09990651
0.0999073
0.09982684
0.0998276
0.09978335
0.09978411
0.09977641
0.09977717
0.09982048
0.09982125
0.09990185
0.09990264
0.09993
0.0999308
0.09993317
0.09993397
0.0999184
0.09991919
0.09987202
0.0998728
0.0998713
0.09987208
0.09991648
0.09991727
0.09993357
0.09993437
0.09993413
0.09993493
0.09991869
0.09991948
0.09987259
0.09987337
0.09987167
0.09987245
0.09991659
0.09991738
0.0999335
0.09993431
0.09993393
0.09993473
0.09991811
0.0999189
0.09987168
0.09987246
0.09987143
0.0998722
0.09991706
0.09991785
0.09993368
0.09993448
0.09993368
0.09993448
0.09991707
0.09991786
0.09987144
0.09987221
0.09987167
0.09987245
0.0999181
0.0999189
0.09993393
0.09993473
0.09993351
0.09993431
0.09991659
0.09991739
0.09987168
0.09987245
0.09987259
0.09987337
0.09991868
0.09991948
0.09993413
0.09993493
0.09993358
0.09993438
0.0999165
0.09991729
0.09987132
0.0998721
0.09987202
0.0998728
0.0999184
0.0999192
0.09993319
0.09993399
0.09993004
0.09993084
0.09990192
0.09990271
0.09982061
0.09982137
0.09977655
0.09977731
0.09976901
0.09976977
0.09981255
0.09981332
0.09989473
0.09989552
0.09992711
0.0999279
0.09993133
0.09993213
0.09991588
0.09991667
0.09986932
0.0998701
0.09986843
0.09986921
0.09991273
0.09991352
0.09993152
0.09993232
0.09993234
0.09993314
0.09991567
0.09991646
0.09986967
0.09987045
0.09986879
0.09986957
0.09991328
0.09991407
0.09993157
0.09993237
0.09993208
0.09993288
0.09991496
0.09991575
0.09986884
0.09986962
0.09986852
0.09986929
0.09991371
0.09991451
0.0999317
0.0999325
0.0999317
0.0999325
0.09991373
0.09991452
0.09986853
0.09986931
0.09986884
0.09986961
0.09991492
0.09991571
0.09993204
0.09993285
0.09993157
0.09993237
0.09991328
0.09991407
0.09986879
0.09986957
0.09986965
0.09987043
0.09991565
0.09991644
0.09993234
0.09993314
0.09993154
0.09993234
0.09991275
0.09991355
0.09986844
0.09986922
0.09986932
0.0998701
0.09991588
0.09991667
0.09993134
0.09993214
0.09992715
0.09992794
0.09989482
0.09989561
0.09981269
0.09981346
0.09976914
0.0997699
0.09976016
0.09976092
0.09980314
0.0998039
0.09988661
0.09988739
0.09992356
0.09992436
0.09992907
0.09992987
0.09991259
0.09991338
0.09986601
0.09986679
0.09986489
0.09986567
0.09990844
0.09990923
0.09992908
0.09992988
0.09993016
0.09993096
0.09991199
0.09991278
0.09986617
0.09986695
0.09986531
0.09986609
0.09990939
0.09991018
0.09992931
0.09993011
0.0999299
0.0999307
0.0999112
0.09991199
0.09986554
0.09986631
0.09986519
0.09986596
0.09990996
0.09991075
0.0999295
0.0999303
0.0999295
0.0999303
0.09990998
0.09991077
0.0998652
0.09986597
0.09986555
0.09986632
0.0999112
0.09991199
0.0999299
0.0999307
0.09992932
0.09993012
0.09990939
0.09991019
0.09986535
0.09986613
0.0998662
0.09986698
0.09991201
0.0999128
0.09993019
0.09993099
0.09992906
0.09992986
0.09990842
0.09990921
0.09986485
0.09986563
0.09986596
0.09986674
0.09991255
0.09991334
0.09992901
0.09992981
0.0999235
0.0999243
0.09988657
0.09988736
0.09980311
0.09980388
0.09976012
0.09976088
0.09974638
0.09974714
0.09978416
0.09978493
0.09986346
0.09986424
0.09991678
0.09991758
0.09992425
0.09992505
0.09990319
0.09990398
0.09986031
0.09986108
0.09985873
0.09985951
0.09989734
0.09989813
0.09992444
0.09992524
0.09992573
0.09992653
0.09990192
0.09990271
0.09986026
0.09986103
0.09985933
0.09986011
0.09989906
0.09989985
0.09992485
0.09992564
0.09992547
0.09992626
0.09990095
0.09990174
0.09985966
0.09986043
0.09985927
0.09986004
0.09989973
0.09990052
0.09992505
0.09992584
0.09992505
0.09992585
0.09989975
0.09990053
0.09985928
0.09986006
0.09985964
0.09986042
0.09990092
0.09990171
0.09992545
0.09992625
0.09992484
0.09992564
0.09989908
0.09989986
0.09985932
0.0998601
0.09986023
0.09986101
0.09990189
0.09990268
0.09992571
0.09992651
0.09992448
0.09992528
0.09989739
0.09989818
0.09985879
0.09985957
0.09986035
0.09986113
0.09990323
0.09990402
0.09992432
0.09992512
0.09991691
0.0999177
0.09986365
0.09986443
0.09978441
0.09978518
0.09974664
0.09974739
0.09972371
0.09972447
0.09975544
0.0997562
0.09982772
0.09982849
0.09990134
0.09990213
0.09991245
0.09991324
0.09988573
0.09988651
0.09984851
0.09984929
0.09984654
0.09984732
0.09987939
0.09988017
0.09991292
0.09991371
0.09991442
0.09991521
0.09988416
0.09988494
0.09984809
0.09984886
0.09984716
0.09984793
0.09988154
0.09988232
0.09991346
0.09991425
0.09991406
0.09991486
0.09988314
0.09988393
0.09984741
0.09984819
0.09984705
0.09984783
0.09988218
0.09988296
0.09991364
0.09991443
0.09991364
0.09991444
0.09988219
0.09988298
0.09984707
0.09984784
0.09984741
0.09984819
0.09988317
0.09988395
0.09991409
0.09991489
0.09991346
0.09991425
0.09988156
0.09988234
0.09984717
0.09984794
0.0998481
0.09984887
0.09988416
0.09988494
0.09991442
0.09991521
0.09991294
0.09991373
0.09987942
0.0998802
0.09984657
0.09984734
0.09984853
0.0998493
0.09988574
0.09988652
0.09991248
0.09991327
0.09990141
0.0999022
0.09982785
0.09982862
0.09975561
0.09975636
0.09972389
0.09972465
0.0999155
0.09991765
0.09991971
0.09992166
0.09992349
0.09992518
0.09992675
0.09992817
0.09992945
0.09993058
0.09993157
0.09993243
0.09993316
0.09993377
0.09993426
0.09993465
0.09993495
0.09993516
0.0999353
0.09993537
0.09995303
0.0999553
0.0999575
0.09995961
0.09996158
0.0999634
0.09996505
0.09996652
0.0999678
0.09996888
0.09996977
0.09997049
0.09997103
0.09997144
0.09997171
0.09997188
0.09997196
0.09997199
0.09997199
0.09997197
0.09997699
0.09997937
0.09998174
0.09998409
0.09998636
0.09998852
0.09999052
0.09999232
0.0999939
0.09999524
0.09999634
0.09999724
0.09999793
0.09999847
0.09999888
0.09999918
0.09999941
0.09999958
0.09999971
0.09999982
0.09997926
0.09998161
0.09998394
0.09998621
0.09998838
0.09999042
0.09999228
0.09999393
0.09999536
0.09999654
0.09999749
0.09999823
0.09999879
0.09999919
0.09999948
0.09999967
0.0999998
0.09999988
0.09999993
0.09999996
0.09997899
0.09998133
0.09998366
0.09998593
0.09998811
0.09999015
0.09999203
0.0999937
0.09999515
0.09999636
0.09999734
0.09999811
0.0999987
0.09999913
0.09999943
0.09999964
0.09999978
0.09999987
0.09999992
0.09999996
0.09997719
0.09997955
0.09998192
0.09998425
0.09998651
0.09998866
0.09999064
0.09999244
0.09999401
0.09999534
0.09999645
0.09999733
0.09999803
0.09999856
0.09999895
0.09999925
0.09999946
0.09999962
0.09999974
0.09999984
0.09995738
0.09995961
0.09996175
0.09996379
0.0999657
0.09996748
0.09996911
0.09997058
0.09997189
0.09997304
0.09997403
0.09997487
0.09997557
0.09997613
0.09997656
0.09997689
0.09997712
0.09997728
0.09997737
0.0999774
0.09995865
0.09996088
0.09996303
0.09996508
0.09996701
0.0999688
0.09997043
0.09997191
0.09997323
0.09997438
0.09997537
0.09997621
0.09997689
0.09997744
0.09997787
0.09997819
0.09997841
0.09997855
0.09997863
0.09997866
0.09997736
0.09997972
0.09998208
0.09998441
0.09998667
0.0999888
0.09999078
0.09999256
0.09999411
0.09999543
0.09999653
0.0999974
0.09999808
0.0999986
0.09999899
0.09999928
0.09999949
0.09999964
0.09999976
0.09999985
0.09997906
0.0999814
0.09998372
0.09998599
0.09998816
0.0999902
0.09999207
0.09999374
0.09999518
0.09999639
0.09999737
0.09999813
0.09999871
0.09999914
0.09999944
0.09999964
0.09999978
0.09999987
0.09999992
0.09999996
0.09997908
0.09998141
0.09998372
0.09998598
0.09998815
0.09999019
0.09999206
0.09999372
0.09999516
0.09999637
0.09999735
0.09999812
0.0999987
0.09999913
0.09999943
0.09999964
0.09999978
0.09999987
0.09999992
0.09999996
0.09997736
0.09997971
0.09998206
0.09998439
0.09998664
0.09998877
0.09999074
0.09999252
0.09999408
0.09999541
0.0999965
0.09999738
0.09999806
0.09999858
0.09999898
0.09999926
0.09999948
0.09999963
0.09999975
0.09999985
0.09995833
0.09996055
0.09996269
0.09996473
0.09996664
0.09996842
0.09997005
0.09997152
0.09997284
0.09997399
0.09997498
0.09997581
0.0999765
0.09997706
0.09997749
0.09997781
0.09997804
0.09997819
0.09997827
0.0999783
0.09995851
0.09996074
0.09996288
0.09996492
0.09996684
0.09996862
0.09997025
0.09997172
0.09997303
0.09997418
0.09997517
0.09997601
0.0999767
0.09997725
0.09997768
0.099978
0.09997822
0.09997837
0.09997845
0.09997849
0.09997738
0.09997974
0.09998209
0.09998441
0.09998666
0.09998879
0.09999076
0.09999254
0.0999941
0.09999542
0.09999651
0.09999739
0.09999807
0.09999859
0.09999898
0.09999927
0.09999948
0.09999964
0.09999976
0.09999985
0.09997911
0.09998144
0.09998375
0.099986
0.09998817
0.0999902
0.09999207
0.09999373
0.09999517
0.09999638
0.09999736
0.09999812
0.09999871
0.09999913
0.09999943
0.09999964
0.09999978
0.09999987
0.09999992
0.09999996
0.0999791
0.09998143
0.09998374
0.099986
0.09998816
0.0999902
0.09999206
0.09999373
0.09999517
0.09999637
0.09999735
0.09999812
0.0999987
0.09999913
0.09999943
0.09999964
0.09999978
0.09999987
0.09999992
0.09999996
0.09997739
0.09997974
0.09998209
0.09998441
0.09998666
0.09998879
0.09999076
0.09999253
0.09999409
0.09999541
0.09999651
0.09999738
0.09999807
0.09999859
0.09999898
0.09999927
0.09999948
0.09999964
0.09999975
0.09999985
0.09995846
0.09996068
0.09996282
0.09996486
0.09996677
0.09996855
0.09997018
0.09997165
0.09997296
0.09997411
0.0999751
0.09997593
0.09997662
0.09997717
0.0999776
0.09997793
0.09997815
0.0999783
0.09997838
0.09997842
0.09995853
0.09996075
0.09996289
0.09996492
0.09996684
0.09996862
0.09997024
0.09997172
0.09997303
0.09997418
0.09997517
0.099976
0.09997669
0.09997724
0.09997767
0.09997799
0.09997822
0.09997836
0.09997845
0.09997848
0.0999774
0.09997975
0.0999821
0.09998442
0.09998666
0.09998879
0.09999077
0.09999254
0.0999941
0.09999542
0.09999651
0.09999739
0.09999807
0.09999859
0.09999898
0.09999927
0.09999948
0.09999964
0.09999975
0.09999985
0.0999791
0.09998144
0.09998375
0.099986
0.09998817
0.0999902
0.09999207
0.09999373
0.09999517
0.09999638
0.09999736
0.09999812
0.09999871
0.09999913
0.09999943
0.09999964
0.09999978
0.09999987
0.09999992
0.09999996
0.09997911
0.09998144
0.09998375
0.099986
0.09998817
0.0999902
0.09999207
0.09999373
0.09999517
0.09999638
0.09999736
0.09999812
0.09999871
0.09999913
0.09999943
0.09999964
0.09999978
0.09999987
0.09999992
0.09999996
0.0999774
0.09997975
0.0999821
0.09998442
0.09998667
0.0999888
0.09999077
0.09999254
0.0999941
0.09999542
0.09999651
0.09999739
0.09999807
0.09999859
0.09999898
0.09999927
0.09999948
0.09999964
0.09999976
0.09999985
0.09995852
0.09996075
0.09996289
0.09996492
0.09996684
0.09996861
0.09997024
0.09997171
0.09997303
0.09997417
0.09997516
0.099976
0.09997669
0.09997724
0.09997767
0.09997799
0.09997821
0.09997836
0.09997844
0.09997848
0.09995843
0.09996065
0.09996279
0.09996483
0.09996675
0.09996852
0.09997015
0.09997163
0.09997294
0.09997409
0.09997508
0.09997591
0.0999766
0.09997716
0.09997759
0.09997791
0.09997814
0.09997828
0.09997837
0.0999784
0.09997737
0.09997972
0.09998208
0.0999844
0.09998664
0.09998878
0.09999075
0.09999253
0.09999409
0.09999541
0.0999965
0.09999738
0.09999806
0.09999859
0.09999898
0.09999927
0.09999948
0.09999964
0.09999975
0.09999985
0.09997908
0.09998142
0.09998373
0.09998598
0.09998815
0.09999019
0.09999206
0.09999372
0.09999516
0.09999637
0.09999735
0.09999812
0.0999987
0.09999913
0.09999943
0.09999964
0.09999978
0.09999987
0.09999992
0.09999996
0.09997909
0.09998142
0.09998374
0.09998599
0.09998816
0.0999902
0.09999206
0.09999373
0.09999517
0.09999638
0.09999736
0.09999812
0.09999871
0.09999913
0.09999943
0.09999964
0.09999978
0.09999987
0.09999992
0.09999996
0.09997738
0.09997973
0.09998209
0.09998441
0.09998666
0.09998879
0.09999076
0.09999254
0.09999409
0.09999542
0.09999651
0.09999739
0.09999807
0.09999859
0.09999898
0.09999927
0.09999948
0.09999964
0.09999976
0.09999985
0.09995844
0.09996067
0.09996282
0.09996486
0.09996678
0.09996857
0.0999702
0.09997168
0.09997299
0.09997414
0.09997513
0.09997597
0.09997666
0.09997721
0.09997764
0.09997796
0.09997819
0.09997834
0.09997842
0.09997845
0.09995824
0.09996047
0.09996262
0.09996466
0.09996658
0.09996836
0.09996999
0.09997147
0.09997278
0.09997394
0.09997493
0.09997577
0.09997646
0.09997701
0.09997744
0.09997777
0.09997799
0.09997814
0.09997823
0.09997826
0.09997731
0.09997967
0.09998203
0.09998435
0.09998661
0.09998875
0.09999072
0.09999251
0.09999407
0.0999954
0.09999649
0.09999737
0.09999806
0.09999858
0.09999897
0.09999926
0.09999948
0.09999963
0.09999975
0.09999985
0.09997904
0.09998138
0.09998369
0.09998596
0.09998813
0.09999017
0.09999204
0.09999371
0.09999515
0.09999636
0.09999735
0.09999812
0.0999987
0.09999913
0.09999943
0.09999964
0.09999978
0.09999987
0.09999992
0.09999996
0.09997908
0.09998142
0.09998374
0.099986
0.09998817
0.09999021
0.09999208
0.09999374
0.09999518
0.09999639
0.09999737
0.09999813
0.09999871
0.09999914
0.09999944
0.09999964
0.09999978
0.09999987
0.09999992
0.09999996
0.09997739
0.09997975
0.09998211
0.09998443
0.09998668
0.09998881
0.09999079
0.09999256
0.09999412
0.09999544
0.09999653
0.0999974
0.09999808
0.0999986
0.09999899
0.09999928
0.09999949
0.09999964
0.09999976
0.09999985
0.0999587
0.09996093
0.09996308
0.09996512
0.09996705
0.09996883
0.09997047
0.09997195
0.09997326
0.09997441
0.0999754
0.09997624
0.09997692
0.09997747
0.0999779
0.09997821
0.09997843
0.09997858