# vtk DataFile Version 2.0
abpLeft
ASCII
DATASET POLYDATA
POINTS 1035 float
0.0069544 0 0 0.0069544 0.0005 0 0.0069544 0.0005 0.001 0.0069544 0
0.001 0.0069544 0.001 0 0.0069544 0.001 0.001 0.0069544 0.0015 0
0.0069544 0.0015 0.001 0.0069544 0.002 0 0.0069544 0.002 0.001 0.0069544
0.0025 0 0.0069544 0.0025 0.001 0.0069544 0.003 0 0.0069544 0.003
0.001 0.0069544 0.0035 0 0.0069544 0.0035 0.001 0.0069544 0.004 0
0.0069544 0.004 0.001 0.0069544 0.0045 0 0.0069544 0.0045 0.001 0.0069544
0.005 0 0.0069544 0.005 0.001 0.0069544 0.0055 0 0.0069544 0.0055
0.001 0.0069544 0.006 0 0.0069544 0.006 0.001 0.0069544 0.0065 0
0.0069544 0.0065 0.001 0.0069544 0.007 0 0.0069544 0.007 0.001 0.0069544
0.0075 0 0.0069544 0.0075 0.001 0.0069544 0.008 0 0.0069544 0.008
0.001 0.0069544 0.0085 0 0.0069544 0.0085 0.001 0.0069544 0.009 0
0.0069544 0.009 0.001 0.0069544 0.0095 0 0.0069544 0.0095 0.001 0.0069544
0.01 0 0.0069544 0.01 0.001 0.0069544 0.0105 0 0.0069544 0.0105
0.001 0.0069544 0.011 0 0.0069544 0.011 0.001 0.0069544 0.0115 0
0.0069544 0.0115 0.001 0.0069544 0.012 0 0.0069544 0.012 0.001 0.0069544
0.0125 0 0.0069544 0.0125 0.001 0.0069544 0.013 0 0.0069544 0.013
0.001 0.0069544 0.0135 0 0.0069544 0.0135 0.001 0.0069544 0.014 0
0.0069544 0.014 0.001 0.0069544 0.0145 0 0.0069544 0.0145 0.001 0.0069544
0.015 0 0.0069544 0.015 0.001 0.0069544 0.0155 0 0.0069544 0.0155
0.001 0.0069544 0.016 0 0.0069544 0.016 0.001 0.0069544 0.0165 0
0.0069544 0.0165 0.001 0.0069544 0.017 0 0.0069544 0.017 0.001 0.0069544
0.0175 0 0.0069544 0.0175 0.001 0.0069544 0.018 0 0.0069544 0.018
0.001 0.0069544 0.0185 0 0.0069544 0.0185 0.001 0.0069544 0.019 0
0.0069544 0.019 0.001 0.0069544 0.0195 0 0.0069544 0.0195 0.001 0.0069544
0.02 0 0.0069544 0.02 0.001 0.0069544 0.0205 0 0.0069544 0.0205
0.001 0.0069544 0.021 0 0.0069544 0.021 0.001 0.0069544 0.0215 0
0.0069544 0.0215 0.001 0.0069544 0.022 0 0.0069544 0.022 0.001 0.0069544
0.0005 0.002 0.0069544 0 0.002 0.0069544 0.001 0.002 0.0069544 0.0015
0.002 0.0069544 0.002 0.002 0.0069544 0.0025 0.002 0.0069544 0.003 0.002
0.0069544 0.0035 0.002 0.0069544 0.004 0.002 0.0069544 0.0045 0.002 0.0069544
0.005 0.002 0.0069544 0.0055 0.002 0.0069544 0.006 0.002 0.0069544 0.0065
0.002 0.0069544 0.007 0.002 0.0069544 0.0075 0.002 0.0069544 0.008 0.002
0.0069544 0.0085 0.002 0.0069544 0.009 0.002 0.0069544 0.0095 0.002 0.0069544
0.01 0.002 0.0069544 0.0105 0.002 0.0069544 0.011 0.002 0.0069544 0.0115
0.002 0.0069544 0.012 0.002 0.0069544 0.0125 0.002 0.0069544 0.013 0.002
0.0069544 0.0135 0.002 0.0069544 0.014 0.002 0.0069544 0.0145 0.002 0.0069544
0.015 0.002 0.0069544 0.0155 0.002 0.0069544 0.016 0.002 0.0069544 0.0165
0.002 0.0069544 0.017 0.002 0.0069544 0.0175 0.002 0.0069544 0.018 0.002
0.0069544 0.0185 0.002 0.0069544 0.019 0.002 0.0069544 0.0195 0.002 0.0069544
0.02 0.002 0.0069544 0.0205 0.002 0.0069544 0.021 0.002 0.0069544 0.0215
0.002 0.0069544 0.022 0.002 0.0069544 0.0005 0.003 0.0069544 0 0.003
0.0069544 0.001 0.003 0.0069544 0.0015 0.003 0.0069544 0.002 0.003 0.0069544
0.0025 0.003 0.0069544 0.003 0.003 0.0069544 0.0035 0.003 0.0069544 0.004
0.003 0.0069544 0.0045 0.003 0.0069544 0.005 0.003 0.0069544 0.0055 0.003
0.0069544 0.006 0.003 0.0069544 0.0065 0.003 0.0069544 0.007 0.003 0.0069544
0.0075 0.003 0.0069544 0.008 0.003 0.0069544 0.0085 0.003 0.0069544 0.009
0.003 0.0069544 0.0095 0.003 0.0069544 0.01 0.003 0.0069544 0.0105 0.003
0.0069544 0.011 0.003 0.0069544 0.0115 0.003 0.0069544 0.012 0.003 0.0069544
0.0125 0.003 0.0069544 0.013 0.003 0.0069544 0.0135 0.003 0.0069544 0.014
0.003 0.0069544 0.0145 0.003 0.0069544 0.015 0.003 0.0069544 0.0155 0.003
0.0069544 0.016 0.003 0.0069544 0.0165 0.003 0.0069544 0.017 0.003 0.0069544
0.0175 0.003 0.0069544 0.018 0.003 0.0069544 0.0185 0.003 0.0069544 0.019
0.003 0.0069544 0.0195 0.003 0.0069544 0.02 0.003 0.0069544 0.0205 0.003
0.0069544 0.021 0.003 0.0069544 0.0215 0.003 0.0069544 0.022 0.003 0.0069544
0.0005 0.004 0.0069544 0 0.004 0.0069544 0.001 0.004 0.0069544 0.0015
0.004 0.0069544 0.002 0.004 0.0069544 0.0025 0.004 0.0069544 0.003 0.004
0.0069544 0.0035 0.004 0.0069544 0.004 0.004 0.0069544 0.0045 0.004 0.0069544
0.005 0.004 0.0069544 0.0055 0.004 0.0069544 0.006 0.004 0.0069544 0.0065
0.004 0.0069544 0.007 0.004 0.0069544 0.0075 0.004 0.0069544 0.008 0.004
0.0069544 0.0085 0.004 0.0069544 0.009 0.004 0.0069544 0.0095 0.004 0.0069544
0.01 0.004 0.0069544 0.0105 0.004 0.0069544 0.011 0.004 0.0069544 0.0115
0.004 0.0069544 0.012 0.004 0.0069544 0.0125 0.004 0.0069544 0.013 0.004
0.0069544 0.0135 0.004 0.0069544 0.014 0.004 0.0069544 0.0145 0.004 0.0069544
0.015 0.004 0.0069544 0.0155 0.004 0.0069544 0.016 0.004 0.0069544 0.0165
0.004 0.0069544 0.017 0.004 0.0069544 0.0175 0.004 0.0069544 0.018 0.004
0.0069544 0.0185 0.004 0.0069544 0.019 0.004 0.0069544 0.0195 0.004 0.0069544
0.02 0.004 0.0069544 0.0205 0.004 0.0069544 0.021 0.004 0.0069544 0.0215
0.004 0.0069544 0.022 0.004 0.0069544 0.0005 0.005 0.0069544 0 0.005
0.0069544 0.001 0.005 0.0069544 0.0015 0.005 0.0069544 0.002 0.005 0.0069544
0.0025 0.005 0.0069544 0.003 0.005 0.0069544 0.0035 0.005 0.0069544 0.004
0.005 0.0069544 0.0045 0.005 0.0069544 0.005 0.005 0.0069544 0.0055 0.005
0.0069544 0.006 0.005 0.0069544 0.0065 0.005 0.0069544 0.007 0.005 0.0069544
0.0075 0.005 0.0069544 0.008 0.005 0.0069544 0.0085 0.005 0.0069544 0.009
0.005 0.0069544 0.0095 0.005 0.0069544 0.01 0.005 0.0069544 0.0105 0.005
0.0069544 0.011 0.005 0.0069544 0.0115 0.005 0.0069544 0.012 0.005 0.0069544
0.0125 0.005 0.0069544 0.013 0.005 0.0069544 0.0135 0.005 0.0069544 0.014
0.005 0.0069544 0.0145 0.005 0.0069544 0.015 0.005 0.0069544 0.0155 0.005
0.0069544 0.016 0.005 0.0069544 0.0165 0.005 0.0069544 0.017 0.005 0.0069544
0.0175 0.005 0.0069544 0.018 0.005 0.0069544 0.0185 0.005 0.0069544 0.019
0.005 0.0069544 0.0195 0.005 0.0069544 0.02 0.005 0.0069544 0.0205 0.005
0.0069544 0.021 0.005 0.0069544 0.0215 0.005 0.0069544 0.022 0.005 0.0069544
0.0005 0.006 0.0069544 0 0.006 0.0069544 0.001 0.006 0.0069544 0.0015
0.006 0.0069544 0.002 0.006 0.0069544 0.0025 0.006 0.0069544 0.003 0.006
0.0069544 0.0035 0.006 0.0069544 0.004 0.006 0.0069544 0.0045 0.006 0.0069544
0.005 0.006 0.0069544 0.0055 0.006 0.0069544 0.006 0.006 0.0069544 0.0065
0.006 0.0069544 0.007 0.006 0.0069544 0.0075 0.006 0.0069544 0.008 0.006
0.0069544 0.0085 0.006 0.0069544 0.009 0.006 0.0069544 0.0095 0.006 0.0069544
0.01 0.006 0.0069544 0.0105 0.006 0.0069544 0.011 0.006 0.0069544 0.0115
0.006 0.0069544 0.012 0.006 0.0069544 0.0125 0.006 0.0069544 0.013 0.006
0.0069544 0.0135 0.006 0.0069544 0.014 0.006 0.0069544 0.0145 0.006 0.0069544
0.015 0.006 0.0069544 0.0155 0.006 0.0069544 0.016 0.006 0.0069544 0.0165
0.006 0.0069544 0.017 0.006 0.0069544 0.0175 0.006 0.0069544 0.018 0.006
0.0069544 0.0185 0.006 0.0069544 0.019 0.006 0.0069544 0.0195 0.006 0.0069544
0.02 0.006 0.0069544 0.0205 0.006 0.0069544 0.021 0.006 0.0069544 0.0215
0.006 0.0069544 0.022 0.006 0.0069544 0.0005 0.007 0.0069544 0 0.007
0.0069544 0.001 0.007 0.0069544 0.0015 0.007 0.0069544 0.002 0.007 0.0069544
0.0025 0.007 0.0069544 0.003 0.007 0.0069544 0.0035 0.007 0.0069544 0.004
0.007 0.0069544 0.0045 0.007 0.0069544 0.005 0.007 0.0069544 0.0055 0.007
0.0069544 0.006 0.007 0.0069544 0.0065 0.007 0.0069544 0.007 0.007 0.0069544
0.0075 0.007 0.0069544 0.008 0.007 0.0069544 0.0085 0.007 0.0069544 0.009
0.007 0.0069544 0.0095 0.007 0.0069544 0.01 0.007 0.0069544 0.0105 0.007
0.0069544 0.011 0.007 0.0069544 0.0115 0.007 0.0069544 0.012 0.007 0.0069544
0.0125 0.007 0.0069544 0.013 0.007 0.0069544 0.0135 0.007 0.0069544 0.014
0.007 0.0069544 0.0145 0.007 0.0069544 0.015 0.007 0.0069544 0.0155 0.007
0.0069544 0.016 0.007 0.0069544 0.0165 0.007 0.0069544 0.017 0.007 0.0069544
0.0175 0.007 0.0069544 0.018 0.007 0.0069544 0.0185 0.007 0.0069544 0.019
0.007 0.0069544 0.0195 0.007 0.0069544 0.02 0.007 0.0069544 0.0205 0.007
0.0069544 0.021 0.007 0.0069544 0.0215 0.007 0.0069544 0.022 0.007 0.0069544
0.0005 0.008 0.0069544 0 0.008 0.0069544 0.001 0.008 0.0069544 0.0015
0.008 0.0069544 0.002 0.008 0.0069544 0.0025 0.008 0.0069544 0.003 0.008
0.0069544 0.0035 0.008 0.0069544 0.004 0.008 0.0069544 0.0045 0.008 0.0069544
0.005 0.008 0.0069544 0.0055 0.008 0.0069544 0.006 0.008 0.0069544 0.0065
0.008 0.0069544 0.007 0.008 0.0069544 0.0075 0.008 0.0069544 0.008 0.008
0.0069544 0.0085 0.008 0.0069544 0.009 0.008 0.0069544 0.0095 0.008 0.0069544
0.01 0.008 0.0069544 0.0105 0.008 0.0069544 0.011 0.008 0.0069544 0.0115
0.008 0.0069544 0.012 0.008 0.0069544 0.0125 0.008 0.0069544 0.013 0.008
0.0069544 0.0135 0.008 0.0069544 0.014 0.008 0.0069544 0.0145 0.008 0.0069544
0.015 0.008 0.0069544 0.0155 0.008 0.0069544 0.016 0.008 0.0069544 0.0165
0.008 0.0069544 0.017 0.008 0.0069544 0.0175 0.008 0.0069544 0.018 0.008
0.0069544 0.0185 0.008 0.0069544 0.019 0.008 0.0069544 0.0195 0.008 0.0069544
0.02 0.008 0.0069544 0.0205 0.008 0.0069544 0.021 0.008 0.0069544 0.0215
0.008 0.0069544 0.022 0.008 0.0069544 0.0005 0.009 0.0069544 0 0.009
0.0069544 0.001 0.009 0.0069544 0.0015 0.009 0.0069544 0.002 0.009 0.0069544
0.0025 0.009 0.0069544 0.003 0.009 0.0069544 0.0035 0.009 0.0069544 0.004
0.009 0.0069544 0.0045 0.009 0.0069544 0.005 0.009 0.0069544 0.0055 0.009
0.0069544 0.006 0.009 0.0069544 0.0065 0.009 0.0069544 0.007 0.009 0.0069544
0.0075 0.009 0.0069544 0.008 0.009 0.0069544 0.0085 0.009 0.0069544 0.009
0.009 0.0069544 0.0095 0.009 0.0069544 0.01 0.009 0.0069544 0.0105 0.009
0.0069544 0.011 0.009 0.0069544 0.0115 0.009 0.0069544 0.012 0.009 0.0069544
0.0125 0.009 0.0069544 0.013 0.009 0.0069544 0.0135 0.009 0.0069544 0.014
0.009 0.0069544 0.0145 0.009 0.0069544 0.015 0.009 0.0069544 0.0155 0.009
0.0069544 0.016 0.009 0.0069544 0.0165 0.009 0.0069544 0.017 0.009 0.0069544
0.0175 0.009 0.0069544 0.018 0.009 0.0069544 0.0185 0.009 0.0069544 0.019
0.009 0.0069544 0.0195 0.009 0.0069544 0.02 0.009 0.0069544 0.0205 0.009
0.0069544 0.021 0.009 0.0069544 0.0215 0.009 0.0069544 0.022 0.009 0.0069544
[...]
CELL_DATA 968
FIELD attributes 4
patchID 1 968 float
14 14 14 14 14 14 14 14 14 14 14
14 14 14 14 14 14 14 14 14 14
14 14 14 14 14 14 14 14 14 14
14 14 14 14 14 14 14 14 14 14
14 14 14 14 14 14 14 14 14 14
14 14 14 14 14 14 14 14 14 14
14 14 14 14 14 14 14 14 14 14
14 14 14 14 14 14 14 14 14 14
14 14 14 14 14 14 14 14 14 14
14 14 14 14 14 14 14 14 14 14
14 14 14 14 14 14 14 14 14 14
14 14 14 14 14 14 14 14 14 14
14 14 14 14 14 14 14 14 14 14
14 14 14 14 14 14 14 14 14 14
14 14 14 14 14 14 14 14 14 14
14 14 14 14 14 14 14 14 14 14
14 14 14 14 14 14 14 14 14 14
14 14 14 14 14 14 14 14 14 14
14 14 14 14 14 14 14 14 14 14
14 14 14 14 14 14 14 14 14 14
14 14 14 14 14 14 14 14 14 14
14 14 14 14 14 14 14 14 14 14
14 14 14 14 14 14 14 14 14 14
14 14 14 14 14 14 14 14 14 14
14 14 14 14 14 14 14 14 14 14
14 14 14 14 14 14 14 14 14 14
14 14 14 14 14 14 14 14 14 14
14 14 14 14 14 14 14 14 14 14
14 14 14 14 14 14 14 14 14 14
14 14 14 14 14 14 14 14 14 14
14 14 14 14 14 14 14 14 14 14
14 14 14 14 14 14 14 14 14 14
14 14 14 14 14 14 14 14 14 14
14 14 14 14 14 14 14 14 14 14
14 14 14 14 14 14 14 14 14 14
14 14 14 14 14 14 14 14 14 14
14 14 14 14 14 14 14 14 14 14
14 14 14 14 14 14 14 14 14 14
14 14 14 14 14 14 14 14 14 14
14 14 14 14 14 14 14 14 14 14
14 14 14 14 14 14 14 14 14 14
14 14 14 14 14 14 14 14 14 14
14 14 14 14 14 14 14 14 14 14
14 14 14 14 14 14 14 14 14 14
14 14 14 14 14 14 14 14 14 14
14 14 14 14 14 14 14 14 14 14
14 14 14 14 14 14 14 14 14 14
14 14 14 14 14 14 14 14 14 14
14 14 14 14 14 14 14 14 14 14
14 14 14 14 14 14 14 14 14 14
14 14 14 14 14 14 14 14 14 14
14 14 14 14 14 14 14 14 14 14
14 14 14 14 14 14 14 14 14 14
14 14 14 14 14 14 14 14 14 14
14 14 14 14 14 14 14 14 14 14
14 14 14 14 14 14 14 14 14 14
14 14 14 14 14 14 14 14 14 14
14 14 14 14 14 14 14 14 14 14
14 14 14 14 14 14 14 14 14 14
14 14 14 14 14 14 14 14 14 14
14 14 14 14 14 14 14 14 14 14
14 14 14 14 14 14 14 14 14 14
14 14 14 14 14 14 14 14 14 14
14 14 14 14 14 14 14 14 14 14
14 14 14 14 14 14 14 14 14 14
14 14 14 14 14 14 14 14 14 14
14 14 14 14 14 14 14 14 14 14
14 14 14 14 14 14 14 14 14 14
14 14 14 14 14 14 14 14 14 14
14 14 14 14 14 14 14 14 14 14
14 14 14 14 14 14 14 14 14 14
14 14 14 14 14 14 14 14 14 14
14 14 14 14 14 14 14 14 14 14
14 14 14 14 14 14 14 14 14 14
14 14 14 14 14 14 14 14 14 14
14 14 14 14 14 14 14 14 14 14
14 14 14 14 14 14 14 14 14 14
14 14 14 14 14 14 14 14 14 14
14 14 14 14 14 14 14 14 14 14
14 14 14 14 14 14 14 14 14 14
14 14 14 14 14 14 14 14 14 14
14 14 14 14 14 14 14 14 14 14
14 14 14 14 14 14 14 14 14 14
14 14 14 14 14 14 14 14 14 14
14 14 14 14 14 14 14 14 14 14
14 14 14 14 14 14 14 14 14 14
14 14 14 14 14 14 14 14 14 14
14 14 14 14 14 14 14 14 14 14
14 14 14 14 14 14 14 14 14 14
14 14 14 14 14 14 14 14 14 14
14 14 14 14 14 14 14 14 14 14
14 14 14 14 14 14 14 14 14 14
14 14 14 14 14 14 14 14 14 14
14 14 14 14 14 14 14 14 14 14
14 14 14 14 14 14 14 14 14 14
14 14 14 14 14 14 14 14 14 14
14 14 14 14 14 14 14 
T 1 968 float
353.187 353.187 353.187 353.186 353.186 353.185 353.185 353.185 353.184 353.184 353.184
353.184 353.184 353.183 353.183 353.183 353.183 353.183 353.183 353.183 353.183
353.183 353.183 353.183 353.183 353.183 353.183 353.183 353.183 353.183 353.183
353.184 353.184 353.184 353.184 353.184 353.185 353.185 353.185 353.186 353.186
353.187 353.187 353.187 353.188 353.188 353.188 353.188 353.187 353.187 353.186
353.186 353.186 353.185 353.185 353.185 353.185 353.185 353.185 353.185 353.184
353.184 353.184 353.184 353.184 353.184 353.184 353.184 353.184 353.184 353.184
353.184 353.185 353.185 353.185 353.185 353.185 353.185 353.185 353.186 353.186
353.186 353.187 353.187 353.188 353.188 353.188 353.188 353.19 353.19 353.19
353.19 353.189 353.189 353.189 353.188 353.188 353.188 353.188 353.188 353.187
353.187 353.187 353.187 353.187 353.187 353.187 353.187 353.187 353.187 353.187
353.187 353.187 353.187 353.187 353.187 353.187 353.187 353.187 353.187 353.188
353.188 353.188 353.188 353.188 353.189 353.189 353.189 353.19 353.19 353.19
353.19 353.193 353.193 353.193 353.193 353.192 353.192 353.192 353.191 353.191
353.191 353.191 353.19 353.19 353.19 353.19 353.19 353.19 353.19 353.19
353.19 353.19 353.19 353.19 353.19 353.19 353.19 353.19 353.19 353.19
353.19 353.19 353.19 353.19 353.191 353.191 353.191 353.191 353.192 353.192
353.192 353.193 353.193 353.193 353.193 353.196 353.196 353.196 353.196 353.195
353.195 353.195 353.195 353.194 353.194 353.194 353.194 353.194 353.194 353.193
353.193 353.193 353.193 353.193 353.193 353.193 353.193 353.193 353.193 353.193
353.193 353.193 353.193 353.193 353.193 353.194 353.194 353.194 353.194 353.194
353.194 353.195 353.195 353.195 353.195 353.196 353.196 353.196 353.196 353.199
353.199 353.199 353.199 353.199 353.198 353.198 353.198 353.198 353.198 353.197
353.197 353.197 353.197 353.197 353.197 353.197 353.197 353.197 353.197 353.197
353.197 353.197 353.197 353.197 353.197 353.197 353.197 353.197 353.197 353.197
353.197 353.197 353.197 353.198 353.198 353.198 353.198 353.198 353.199 353.199
353.199 353.199 353.199 353.203 353.203 353.203 353.202 353.202 353.202 353.202
353.202 353.201 353.201 353.201 353.201 353.201 353.201 353.201 353.201 353.2
353.2 353.2 353.2 353.2 353.2 353.2 353.2 353.2 353.2 353.2
353.2 353.201 353.201 353.201 353.201 353.201 353.201 353.201 353.201 353.202
353.202 353.202 353.202 353.202 353.203 353.203 353.203 353.206 353.206 353.206
353.206 353.206 353.206 353.205 353.205 353.205 353.205 353.205 353.205 353.204
353.204 353.204 353.204 353.204 353.204 353.204 353.204 353.204 353.204 353.204
353.204 353.204 353.204 353.204 353.204 353.204 353.204 353.204 353.204 353.205
353.205 353.205 353.205 353.205 353.205 353.206 353.206 353.206 353.206 353.206
353.206 353.21 353.21 353.21 353.209 353.209 353.209 353.209 353.209 353.209
353.208 353.208 353.208 353.208 353.208 353.208 353.208 353.208 353.208 353.208
353.208 353.208 353.208 353.208 353.208 353.208 353.208 353.208 353.208 353.208
353.208 353.208 353.208 353.208 353.208 353.208 353.209 353.209 353.209 353.209
353.209 353.209 353.21 353.21 353.21 353.213 353.213 353.213 353.213 353.213
353.212 353.212 353.212 353.212 353.212 353.212 353.212 353.212 353.212 353.211
353.211 353.211 353.211 353.211 353.211 353.211 353.211 353.211 353.211 353.211
353.211 353.211 353.211 353.211 353.211 353.212 353.212 353.212 353.212 353.212
353.212 353.212 353.212 353.212 353.213 353.213 353.213 353.213 353.213 353.216
353.216 353.216 353.216 353.216 353.216 353.216 353.216 353.215 353.215 353.215
353.215 353.215 353.215 353.215 353.215 353.215 353.215 353.215 353.215 353.215
353.215 353.215 353.215 353.215 353.215 353.215 353.215 353.215 353.215 353.215
353.215 353.215 353.215 353.215 353.215 353.216 353.216 353.216 353.216 353.216
353.216 353.216 353.216 353.22 353.22 353.219 353.219 353.219 353.219 353.219
353.219 353.219 353.219 353.218 353.218 353.218 353.218 353.218 353.218 353.218
353.218 353.218 353.218 353.218 353.218 353.218 353.218 353.218 353.218 353.218
353.218 353.218 353.218 353.218 353.218 353.218 353.218 353.219 353.219 353.219
353.219 353.219 353.219 353.219 353.219 353.22 353.22 353.223 353.223 353.222
353.222 353.222 353.222 353.222 353.222 353.222 353.221 353.221 353.221 353.221
353.221 353.221 353.221 353.221 353.221 353.221 353.221 353.221 353.221 353.221
353.221 353.221 353.221 353.221 353.221 353.221 353.221 353.221 353.221 353.221
353.221 353.221 353.222 353.222 353.222 353.222 353.222 353.222 353.222 353.223
353.223 353.225 353.225 353.225 353.225 353.225 353.225 353.225 353.225 353.224
353.224 353.224 353.224 353.224 353.224 353.224 353.224 353.224 353.224 353.224
353.224 353.224 353.224 353.224 353.224 353.224 353.224 353.224 353.224 353.224
353.224 353.224 353.224 353.224 353.224 353.224 353.224 353.225 353.225 353.225
353.225 353.225 353.225 353.225 353.225 353.228 353.228 353.228 353.228 353.227
353.227 353.227 353.227 353.227 353.227 353.227 353.227 353.227 353.227 353.227
353.227 353.227 353.227 353.227 353.227 353.227 353.227 353.227 353.227 353.227
353.227 353.227 353.227 353.227 353.227 353.227 353.227 353.227 353.227 353.227
353.227 353.227 353.227 353.227 353.227 353.228 353.228 353.228 353.228 353.23
353.23 353.23 353.23 353.23 353.23 353.23 353.23 353.229 353.229 353.229
353.229 353.229 353.229 353.229 353.229 353.229 353.229 353.229 353.229 353.229
353.229 353.229 353.229 353.229 353.229 353.229 353.229 353.229 353.229 353.229
353.229 353.229 353.229 353.229 353.229 353.23 353.23 353.23 353.23 353.23
353.23 353.23 353.23 353.232 353.232 353.232 353.232 353.232 353.232 353.232
353.232 353.232 353.231 353.231 353.231 353.231 353.231 353.231 353.231 353.231
353.231 353.231 353.231 353.231 353.231 353.231 353.231 353.231 353.231 353.231
353.231 353.231 353.231 353.231 353.231 353.231 353.231 353.231 353.232 353.232
353.232 353.232 353.232 353.232 353.232 353.232 353.232 353.234 353.234 353.234
353.234 353.233 353.233 353.233 353.233 353.233 353.233 353.233 353.233 353.233
353.233 353.233 353.233 353.233 353.233 353.233 353.233 353.233 353.233 353.233
353.233 353.233 353.233 353.233 353.233 353.233 353.233 353.233 353.233 353.233
353.233 353.233 353.233 353.233 353.233 353.233 353.233 353.233 353.234 353.234
353.234 353.235 353.235 353.235 353.235 353.235 353.235 353.235 353.235 353.235
353.235 353.235 353.235 353.235 353.235 353.234 353.234 353.234 353.234 353.234
353.234 353.234 353.234 353.234 353.234 353.234 353.234 353.234 353.234 353.234
353.234 353.235 353.235 353.235 353.235 353.235 353.235 353.235 353.235 353.235
353.235 353.235 353.235 353.235 353.235 353.236 353.236 353.236 353.236 353.236
353.236 353.236 353.236 353.236 353.236 353.236 353.236 353.236 353.236 353.236
353.236 353.236 353.236 353.236 353.236 353.236 353.235 353.235 353.236 353.236
353.236 353.236 353.236 353.236 353.236 353.236 353.236 353.236 353.236 353.236
353.236 353.236 353.236 353.236 353.236 353.236 353.236 353.236 353.236 353.237
353.237 353.237 353.237 353.237 353.237 353.237 353.237 353.237 353.237 353.237
353.237 353.237 353.237 353.236 353.236 353.236 353.236 353.236 353.236 353.236
353.236 353.236 353.236 353.236 353.236 353.236 353.236 353.236 353.236 353.237
353.237 353.237 353.237 353.237 353.237 353.237 353.237 353.237 353.237 353.237
353.237 353.237 353.237 353.238 353.237 353.237 353.237 353.237 353.237 353.237
353.237 353.237 353.237 353.237 353.237 353.237 353.237 353.237 353.237 353.237
353.237 353.237 353.237 353.237 353.237 353.237 353.237 353.237 353.237 353.237
353.237 353.237 353.237 353.237 353.237 353.237 353.237 353.237 353.237 353.237
353.237 353.237 353.237 353.237 353.237 353.237 353.238 
Tsource 1 968 float
0 0 0 0 0 0 0 0 0 0 0
0 0 0 0 0 0 0 0 0 0
0 0 0 0 0 0 0 0 0 0
0 0 0 0 0 0 0 0 0 0
0 0 0 0 0 0 0 0 0 0
0 0 0 0 0 0 0 0 0 0
0 0 0 0 0 0 0 0 0 0
0 0 0 0 0 0 0 0 0 0
0 0 0 0 0 0 0 0 0 0
0 0 0 0 0 0 0 0 0 0
0 0 0 0 0 0 0 0 0 0
0 0 0 0 0 0 0 0 0 0
0 0 0 0 0 0 0 0 0 0
0 0 0 0 0 0 0 0 0 0
0 0 0 0 0 0 0 0 0 0
0 0 0 0 0 0 0 0 0 0
0 0 0 0 0 0 0 0 0 0
0 0 0 0 0 0 0 0 0 0
0 0 0 0 0 0 0 0 0 0
0 0 0 0 0 0 0 0 0 0
0 0 0 0 0 0 0 0 0 0
0 0 0 0 0 0 0 0 0 0
0 0 0 0 0 0 0 0 0 0
0 0 0 0 0 0 0 0 0 0
0 0 0 0 0 0 0 0 0 0
0 0 0 0 0 0 0 0 0 0
0 0 0 0 0 0 0 0 0 0
0 0 0 0 0 0 0 0 0 0
0 0 0 0 0 0 0 0 0 0
0 0 0 0 0 0 0 0 0 0
0 0 0 0 0 0 0 0 0 0
0 0 0 0 0 0 0 0 0 0
0 0 0 0 0 0 0 0 0 0
0 0 0 0 0 0 0 0 0 0
0 0 0 0 0 0 0 0 0 0
0 0 0 0 0 0 0 0 0 0
0 0 0 0 0 0 0 0 0 0
0 0 0 0 0 0 0 0 0 0
0 0 0 0 0 0 0 0 0 0
0 0 0 0 0 0 0 0 0 0
0 0 0 0 0 0 0 0 0 0
0 0 0 0 0 0 0 0 0 0
0 0 0 0 0 0 0 0 0 0
0 0 0 0 0 0 0 0 0 0
0 0 0 0 0 0 0 0 0 0
0 0 0 0 0 0 0 0 0 0
0 0 0 0 0 0 0 0 0 0
0 0 0 0 0 0 0 0 0 0
0 0 0 0 0 0 0 0 0 0
0 0 0 0 0 0 0 0 0 0
0 0 0 0 0 0 0 0 0 0
0 0 0 0 0 0 0 0 0 0
0 0 0 0 0 0 0 0 0 0
0 0 0 0 0 0 0 0 0 0
0 0 0 0 0 0 0 0 0 0
0 0 0 0 0 0 0 0 0 0
0 0 0 0 0 0 0 0 0 0
0 0 0 0 0 0 0 0 0 0
0 0 0 0 0 0 0 0 0 0
0 0 0 0 0 0 0 0 0 0
0 0 0 0 0 0 0 0 0 0
0 0 0 0 0 0 0 0 0 0
0 0 0 0 0 0 0 0 0 0
0 0 0 0 0 0 0 0 0 0
0 0 0 0 0 0 0 0 0 0
0 0 0 0 0 0 0 0 0 0
0 0 0 0 0 0 0 0 0 0
0 0 0 0 0 0 0 0 0 0
0 0 0 0 0 0 0 0 0 0
0 0 0 0 0 0 0 0 0 0
0 0 0 0 0 0 0 0 0 0
0 0 0 0 0 0 0 0 0 0
0 0 0 0 0 0 0 0 0 0
0 0 0 0 0 0 0 0 0 0
0 0 0 0 0 0 0 0 0 0
0 0 0 0 0 0 0 0 0 0
0 0 0 0 0 0 0 0 0 0
0 0 0 0 0 0 0 0 0 0
0 0 0 0 0 0 0 0 0 0
0 0 0 0 0 0 0 0 0 0
0 0 0 0 0 0 0 0 0 0
0 0 0 0 0 0 0 0 0 0
0 0 0 0 0 0 0 0 0 0
0 0 0 0 0 0 0 0 0 0
0 0 0 0 0 0 0 0 0 0
0 0 0 0 0 0 0 0 0 0
0 0 0 0 0 0 0 0 0 0
0 0 0 0 0 0 0 0 0 0
0 0 0 0 0 0 0 0 0 0
0 0 0 0 0 0 0 0 0 0
0 0 0 0 0 0 0 0 0 0
0 0 0 0 0 0 0 0 0 0
0 0 0 0 0 0 0 0 0 0
0 0 0 0 0 0 0 0 0 0
0 0 0 0 0 0 0 0 0 0
0 0 0 0 0 0 0 0 0 0
0 0 0 0 0 0 0 
k 1 968 float
10.7 10.7 10.7 10.7 10.7 10.7 10.7 10.7 10.7 10.7 10.7
10.7 10.7 10.7 10.7 10.7 10.7 10.7 10.7 10.7 10.7
10.7 10.7 10.7 10.7 10.7 10.7 10.7 10.7 10.7 10.7
10.7 10.7 10.7 10.7 10.7 10.7 10.7 10.7 10.7 10.7
10.7 10.7 10.7 10.7 10.7 10.7 10.7 10.7 10.7 10.7
10.7 10.7 10.7 10.7 10.7 10.7 10.7 10.7 10.7 10.7
10.7 10.7 10.7 10.7 10.7 10.7 10.7 10.7 10.7 10.7
10.7 10.7 10.7 10.7 10.7 10.7 10.7 10.7 10.7 10.7
10.7 10.7 10.7 10.7 10.7 10.7 10.7 10.7 10.7 10.7
10.7 10.7 10.7 10.7 10.7 10.7 10.7 10.7 10.7 10.7
10.7 10.7 10.7 10.7 10.7 10.7 10.7 10.7 10.7 10.7
10.7 10.7 10.7 10.7 10.7 10.7 10.7 10.7 10.7 10.7
10.7 10.7 10.7 10.7 10.7 10.7 10.7 10.7 10.7 10.7
10.7 10.7 10.7 10.7 10.7 10.7 10.7 10.7 10.7 10.7
10.7 10.7 10.7 10.7 10.7 10.7 10.7 10.7 10.7 10.7
10.7 10.7 10.7 10.7 10.7 10.7 10.7 10.7 10.7 10.7
10.7 10.7 10.7 10.7 10.7 10.7 10.7 10.7 10.7 10.7
10.7 10.7 10.7 10.7 10.7 10.7 10.7 10.7 10.7 10.7
10.7 10.7 10.7 10.7 10.7 10.7 10.7 10.7 10.7 10.7
10.7 10.7 10.7 10.7 10.7 10.7 10.7 10.7 10.7 10.7
10.7 10.7 10.7 10.7 10.7 10.7 10.7 10.7 10.7 10.7
10.7 10.7 10.7 10.7 10.7 10.7 10.7 10.7 10.7 10.7
10.7 10.7 10.7 10.7 10.7 10.7 10.7 10.7 10.7 10.7
10.7 10.7 10.7 10.7 10.7 10.7 10.7 10.7 10.7 10.7
10.7 10.7 10.7 10.7 10.7 10.7 10.7 10.7 10.7 10.7
10.7 10.7 10.7 10.7 10.7 10.7 10.7 10.7 10.7 10.7
10.7 10.7 10.7 10.7 10.7 10.7 10.7 10.7 10.7 10.7
10.7 10.7 10.7 10.7 10.7 10.7 10.7 10.7 10.7 10.7
10.7 10.7 10.7 10.7 10.7 10.7 10.7 10.7 10.7 10.7
10.7 10.7 10.7 10.7 10.7 10.7 10.7 10.7 10.7 10.7
10.7 10.7 10.7 10.7 10.7 10.7 10.7 10.7 10.7 10.7
10.7 10.7 10.7 10.7 10.7 10.7 10.7 10.7 10.7 10.7
10.7 10.7 10.7 10.7 10.7 10.7 10.7 10.7 10.7 10.7
10.7 10.7 10.7 10.7 10.7 10.7 10.7 10.7 10.7 10.7
10.7 10.7 10.7 10.7 10.7 10.7 10.7 10.7 10.7 10.7
10.7 10.7 10.7 10.7 10.7 10.7 10.7 10.7 10.7 10.7
10.7 10.7 10.7 10.7 10.7 10.7 10.7 10.7 10.7 10.7
10.7 10.7 10.7 10.7 10.7 10.7 10.7 10.7 10.7 10.7
10.7 10.7 10.7 10.7 10.7 10.7 10.7 10.7 10.7 10.7
10.7 10.7 10.7 10.7 10.7 10.7 10.7 10.7 10.7 10.7
10.7 10.7 10.7 10.7 10.7 10.7 10.7 10.7 10.7 10.7
10.7 10.7 10.7 10.7 10.7 10.7 10.7 10.7 10.7 10.7
10.7 10.7 10.7 10.7 10.7 10.7 10.7 10.7 10.7 10.7
10.7 10.7 10.7 10.7 10.7 10.7 10.7 10.7 10.7 10.7
10.7 10.7 10.7 10.7 10.7 10.7 10.7 10.7 10.7 10.7
10.7 10.7 10.7 10.7 10.7 10.7 10.7 10.7 10.7 10.7
10.7 10.7 10.7 10.7 10.7 10.7 10.7 10.7 10.7 10.7
10.7 10.7 10.7 10.7 10.7 10.7 10.7 10.7 10.7 10.7
10.7 10.7 10.7 10.7 10.7 10.7 10.7 10.7 10.7 10.7
10.7 10.7 10.7 10.7 10.7 10.7 10.7 10.7 10.7 10.7
10.7 10.7 10.7 10.7 10.7 10.7 10.7 10.7 10.7 10.7
10.7 10.7 10.7 10.7 10.7 10.7 10.7 10.7 10.7 10.7
10.7 10.7 10.7 10.7 10.7 10.7 10.7 10.7 10.7 10.7
10.7 10.7 10.7 10.7 10.7 10.7 10.7 10.7 10.7 10.7
10.7 10.7 10.7 10.7 10.7 10.7 10.7 10.7 10.7 10.7
10.7 10.7 10.7 10.7 10.7 10.7 10.7 10.7 10.7 10.7
10.7 10.7 10.7 10.7 10.7 10.7 10.7 10.7 10.7 10.7
10.7 10.7 10.7 10.7 10.7 10.7 10.7 10.7 10.7 10.7
10.7 10.7 10.7 10.7 10.7 10.7 10.7 10.7 10.7 10.7
10.7 10.7 10.7 10.7 10.7 10.7 10.7 10.7 10.7 10.7
10.7 10.7 10.7 10.7 10.7 10.7 10.7 10.7 10.7 10.7
10.7 10.7 10.7 10.7 10.7 10.7 10.7 10.7 10.7 10.7
10.7 10.7 10.7 10.7 10.7 10.7 10.7 10.7 10.7 10.7
10.7 10.7 10.7 10.7 10.7 10.7 10.7 10.7 10.7 10.7
10.7 10.7 10.7 10.7 10.7 10.7 10.7 10.7 10.7 10.7
10.7 10.7 10.7 10.7 10.7 10.7 10.7 10.7 10.7 10.7
10.7 10.7 10.7 10.7 10.7 10.7 10.7 10.7 10.7 10.7
10.7 10.7 10.7 10.7 10.7 10.7 10.7 10.7 10.7 10.7
10.7 10.7 10.7 10.7 10.7 10.7 10.7 10.7 10.7 10.7
10.7 10.7 10.7 10.7 10.7 10.7 10.7 10.7 10.7 10.7
10.7 10.7 10.7 10.7 10.7 10.7 10.7 10.7 10.7 10.7
10.7 10.7 10.7 10.7 10.7 10.7 10.7 10.7 10.7 10.7
10.7 10.7 10.7 10.7 10.7 10.7 10.7 10.7 10.7 10.7
10.7 10.7 10.7 10.7 10.7 10.7 10.7 10.7 10.7 10.7
10.7 10.7 10.7 10.7 10.7 10.7 10.7 10.7 10.7 10.7
10.7 10.7 10.7 10.7 10.7 10.7 10.7 10.7 10.7 10.7
10.7 10.7 10.7 10.7 10.7 10.7 10.7 10.7 10.7 10.7
10.7 10.7 10.7 10.7 10.7 10.7 10.7 10.7 10.7 10.7
10.7 10.7 10.7 10.7 10.7 10.7 10.7 10.7 10.7 10.7
10.7 10.7 10.7 10.7 10.7 10.7 10.7 10.7 10.7 10.7
10.7 10.7 10.7 10.7 10.7 10.7 10.7 10.7 10.7 10.7
10.7 10.7 10.7 10.7 10.7 10.7 10.7 10.7 10.7 10.7
10.7 10.7 10.7 10.7 10.7 10.7 10.7 10.7 10.7 10.7
10.7 10.7 10.7 10.7 10.7 10.7 10.7 10.7 10.7 10.7
10.7 10.7 10.7 10.7 10.7 10.7 10.7 10.7 10.7 10.7
10.7 10.7 10.7 10.7 10.7 10.7 10.7 10.7 10.7 10.7
10.7 10.7 10.7 10.7 10.7 10.7 10.7 10.7 10.7 10.7
10.7 10.7 10.7 10.7 10.7 10.7 10.7 10.7 10.7 10.7
10.7 10.7 10.7 10.7 10.7 10.7 10.7 10.7 10.7 10.7
10.7 10.7 10.7 10.7 10.7 10.7 10.7 10.7 10.7 10.7
10.7 10.7 10.7 10.7 10.7 10.7 10.7 10.7 10.7 10.7
10.7 10.7 10.7 10.7 10.7 10.7 10.7 10.7 10.7 10.7
10.7 10.7 10.7 10.7 10.7 10.7 10.7 10.7 10.7 10.7
10.7 10.7 10.7 10.7 10.7 10.7 10.7 10.7 10.7 10.7
10.7 10.7 10.7 10.7 10.7 10.7 10.7 10.7 10.7 10.7
10.7 10.7 10.7 10.7 10.7 10.7 10.7 10.7 10.7 10.7
10.7 10.7 10.7 10.7 10.7 10.7 10.7 
POINT_DATA  1035
FIELD attributes 3
T 1 1035 float
353.187 353.187 353.188 353.188 353.187 353.187 353.186 353.187 353.186 353.187 353.185
353.186 353.185 353.186 353.185 353.186 353.185 353.185 353.184 353.185 353.184
353.185 353.184 353.185 353.184 353.184 353.183 353.184 353.183 353.184 353.183
353.184 353.183 353.184 353.183 353.184 353.183 353.184 353.183 353.184 353.183
353.183 353.183 353.183 353.183 353.183 353.183 353.183 353.183 353.183 353.183
353.184 353.183 353.184 353.183 353.184 353.183 353.184 353.183 353.184 353.183
353.184 353.183 353.184 353.184 353.184 353.184 353.185 353.184 353.185 353.184
353.185 353.185 353.185 353.185 353.185 353.185 353.186 353.185 353.186 353.186
353.187 353.186 353.187 353.187 353.187 353.187 353.188 353.187 353.188 353.189
353.189 353.189 353.189 353.188 353.188 353.188 353.187 353.187 353.187 353.187
353.186 353.186 353.186 353.186 353.186 353.186 353.186 353.185 353.185 353.185
353.185 353.185 353.185 353.185 353.185 353.185 353.186 353.186 353.186 353.186
353.186 353.186 353.186 353.187 353.187 353.187 353.187 353.188 353.188 353.188
353.189 353.189 353.189 353.189 353.192 353.192 353.192 353.191 353.191 353.191
353.19 353.19 353.19 353.189 353.189 353.189 353.189 353.189 353.189 353.188
353.188 353.188 353.188 353.188 353.188 353.188 353.188 353.188 353.188 353.188
353.188 353.188 353.188 353.188 353.189 353.189 353.189 353.189 353.189 353.189
353.19 353.19 353.19 353.191 353.191 353.191 353.192 353.192 353.192 353.195
353.195 353.194 353.194 353.194 353.194 353.193 353.193 353.193 353.193 353.192
353.192 353.192 353.192 353.192 353.192 353.192 353.191 353.191 353.191 353.191
353.191 353.191 353.191 353.191 353.191 353.191 353.191 353.192 353.192 353.192
353.192 353.192 353.192 353.192 353.193 353.193 353.193 353.193 353.194 353.194
353.194 353.194 353.195 353.195 353.198 353.198 353.198 353.197 353.197 353.197
353.197 353.196 353.196 353.196 353.196 353.196 353.195 353.195 353.195 353.195
353.195 353.195 353.195 353.195 353.195 353.195 353.195 353.195 353.195 353.195
353.195 353.195 353.195 353.195 353.195 353.195 353.195 353.196 353.196 353.196
353.196 353.196 353.197 353.197 353.197 353.197 353.198 353.198 353.198 353.201
353.201 353.201 353.201 353.201 353.2 353.2 353.2 353.2 353.199 353.199
353.199 353.199 353.199 353.199 353.199 353.199 353.199 353.198 353.198 353.198
353.198 353.198 353.198 353.198 353.198 353.198 353.199 353.199 353.199 353.199
353.199 353.199 353.199 353.199 353.199 353.2 353.2 353.2 353.2 353.201