# vtk DataFile Version 2.0
agdlSides
ASCII
DATASET POLYDATA
POINTS 2772 float
0.0035444 0 0 0.0035649 0 0 0.0035649 0 0.001 0.0035444 0
0.001 0.0035649 0 0.002 0.0035444 0 0.002 0.0035649 0 0.003
0.0035444 0 0.003 0.0035649 0 0.004 0.0035444 0 0.004 0.0035649
0 0.005 0.0035444 0 0.005 0.0035649 0 0.006 0.0035444 0
0.006 0.0035649 0 0.007 0.0035444 0 0.007 0.0035649 0 0.008
0.0035444 0 0.008 0.0035649 0 0.009 0.0035444 0 0.009 0.0035649
0 0.01 0.0035444 0 0.01 0.0035649 0 0.011 0.0035444 0
0.011 0.0035649 0 0.012 0.0035444 0 0.012 0.0035649 0 0.013
0.0035444 0 0.013 0.0035649 0 0.014 0.0035444 0 0.014 0.0035649
0 0.015 0.0035444 0 0.015 0.0035649 0 0.016 0.0035444 0
0.016 0.0035649 0 0.017 0.0035444 0 0.017 0.0035649 0 0.018
0.0035444 0 0.018 0.0035649 0 0.019 0.0035444 0 0.019 0.0035649
0 0.02 0.0035444 0 0.02 0.0035649 0 0.021 0.0035444 0
0.021 0.0035649 0 0.022 0.0035444 0 0.022 0.0035854 0 0
0.0035854 0 0.001 0.0035854 0 0.002 0.0035854 0 0.003 0.0035854
0 0.004 0.0035854 0 0.005 0.0035854 0 0.006 0.0035854 0
0.007 0.0035854 0 0.008 0.0035854 0 0.009 0.0035854 0 0.01
0.0035854 0 0.011 0.0035854 0 0.012 0.0035854 0 0.013 0.0035854
0 0.014 0.0035854 0 0.015 0.0035854 0 0.016 0.0035854 0
0.017 0.0035854 0 0.018 0.0035854 0 0.019 0.0035854 0 0.02
0.0035854 0 0.021 0.0035854 0 0.022 0.0036059 0 0 0.0036059
0 0.001 0.0036059 0 0.002 0.0036059 0 0.003 0.0036059 0
0.004 0.0036059 0 0.005 0.0036059 0 0.006 0.0036059 0 0.007
0.0036059 0 0.008 0.0036059 0 0.009 0.0036059 0 0.01 0.0036059
0 0.011 0.0036059 0 0.012 0.0036059 0 0.013 0.0036059 0
0.014 0.0036059 0 0.015 0.0036059 0 0.016 0.0036059 0 0.017
0.0036059 0 0.018 0.0036059 0 0.019 0.0036059 0 0.02 0.0036059
0 0.021 0.0036059 0 0.022 0.0036264 0 0 0.0036264 0
0.001 0.0036264 0 0.002 0.0036264 0 0.003 0.0036264 0 0.004
0.0036264 0 0.005 0.0036264 0 0.006 0.0036264 0 0.007 0.0036264
0 0.008 0.0036264 0 0.009 0.0036264 0 0.01 0.0036264 0
0.011 0.0036264 0 0.012 0.0036264 0 0.013 0.0036264 0 0.014
0.0036264 0 0.015 0.0036264 0 0.016 0.0036264 0 0.017 0.0036264
0 0.018 0.0036264 0 0.019 0.0036264 0 0.02 0.0036264 0
0.021 0.0036264 0 0.022 0.0036469 0 0 0.0036469 0 0.001
0.0036469 0 0.002 0.0036469 0 0.003 0.0036469 0 0.004 0.0036469
0 0.005 0.0036469 0 0.006 0.0036469 0 0.007 0.0036469 0
0.008 0.0036469 0 0.009 0.0036469 0 0.01 0.0036469 0 0.011
0.0036469 0 0.012 0.0036469 0 0.013 0.0036469 0 0.014 0.0036469
0 0.015 0.0036469 0 0.016 0.0036469 0 0.017 0.0036469 0
0.018 0.0036469 0 0.019 0.0036469 0 0.02 0.0036469 0 0.021
0.0036469 0 0.022 0.0036674 0 0 0.0036674 0 0.001 0.0036674
0 0.002 0.0036674 0 0.003 0.0036674 0 0.004 0.0036674 0
0.005 0.0036674 0 0.006 0.0036674 0 0.007 0.0036674 0 0.008
0.0036674 0 0.009 0.0036674 0 0.01 0.0036674 0 0.011 0.0036674
0 0.012 0.0036674 0 0.013 0.0036674 0 0.014 0.0036674 0
0.015 0.0036674 0 0.016 0.0036674 0 0.017 0.0036674 0 0.018
0.0036674 0 0.019 0.0036674 0 0.02 0.0036674 0 0.021 0.0036674
0 0.022 0.0036879 0 0 0.0036879 0 0.001 0.0036879 0
0.002 0.0036879 0 0.003 0.0036879 0 0.004 0.0036879 0 0.005
0.0036879 0 0.006 0.0036879 0 0.007 0.0036879 0 0.008 0.0036879
0 0.009 0.0036879 0 0.01 0.0036879 0 0.011 0.0036879 0
0.012 0.0036879 0 0.013 0.0036879 0 0.014 0.0036879 0 0.015
0.0036879 0 0.016 0.0036879 0 0.017 0.0036879 0 0.018 0.0036879
0 0.019 0.0036879 0 0.02 0.0036879 0 0.021 0.0036879 0
0.022 0.0037084 0 0 0.0037084 0 0.001 0.0037084 0 0.002
0.0037084 0 0.003 0.0037084 0 0.004 0.0037084 0 0.005 0.0037084
0 0.006 0.0037084 0 0.007 0.0037084 0 0.008 0.0037084 0
0.009 0.0037084 0 0.01 0.0037084 0 0.011 0.0037084 0 0.012
0.0037084 0 0.013 0.0037084 0 0.014 0.0037084 0 0.015 0.0037084
0 0.016 0.0037084 0 0.017 0.0037084 0 0.018 0.0037084 0
0.019 0.0037084 0 0.02 0.0037084 0 0.021 0.0037084 0 0.022
0.0037289 0 0 0.0037289 0 0.001 0.0037289 0 0.002 0.0037289
0 0.003 0.0037289 0 0.004 0.0037289 0 0.005 0.0037289 0
0.006 0.0037289 0 0.007 0.0037289 0 0.008 0.0037289 0 0.009
0.0037289 0 0.01 0.0037289 0 0.011 0.0037289 0 0.012 0.0037289
0 0.013 0.0037289 0 0.014 0.0037289 0 0.015 0.0037289 0
0.016 0.0037289 0 0.017 0.0037289 0 0.018 0.0037289 0 0.019
0.0037289 0 0.02 0.0037289 0 0.021 0.0037289 0 0.022 0.0037494
0 0 0.0037494 0 0.001 0.0037494 0 0.002 0.0037494 0
0.003 0.0037494 0 0.004 0.0037494 0 0.005 0.0037494 0 0.006
0.0037494 0 0.007 0.0037494 0 0.008 0.0037494 0 0.009 0.0037494
0 0.01 0.0037494 0 0.011 0.0037494 0 0.012 0.0037494 0
0.013 0.0037494 0 0.014 0.0037494 0 0.015 0.0037494 0 0.016
0.0037494 0 0.017 0.0037494 0 0.018 0.0037494 0 0.019 0.0037494
0 0.02 0.0037494 0 0.021 0.0037494 0 0.022 0.0037699 0
0 0.0037699 0 0.001 0.0037699 0 0.002 0.0037699 0 0.003
0.0037699 0 0.004 0.0037699 0 0.005 0.0037699 0 0.006 0.0037699
0 0.007 0.0037699 0 0.008 0.0037699 0 0.009 0.0037699 0
0.01 0.0037699 0 0.011 0.0037699 0 0.012 0.0037699 0 0.013
0.0037699 0 0.014 0.0037699 0 0.015 0.0037699 0 0.016 0.0037699
0 0.017 0.0037699 0 0.018 0.0037699 0 0.019 0.0037699 0
0.02 0.0037699 0 0.021 0.0037699 0 0.022 0.0037904 0 0
0.0037904 0 0.001 0.0037904 0 0.002 0.0037904 0 0.003 0.0037904
0 0.004 0.0037904 0 0.005 0.0037904 0 0.006 0.0037904 0
0.007 0.0037904 0 0.008 0.0037904 0 0.009 0.0037904 0 0.01
0.0037904 0 0.011 0.0037904 0 0.012 0.0037904 0 0.013 0.0037904
0 0.014 0.0037904 0 0.015 0.0037904 0 0.016 0.0037904 0
0.017 0.0037904 0 0.018 0.0037904 0 0.019 0.0037904 0 0.02
0.0037904 0 0.021 0.0037904 0 0.022 0.0038109 0 0 0.0038109
0 0.001 0.0038109 0 0.002 0.0038109 0 0.003 0.0038109 0
0.004 0.0038109 0 0.005 0.0038109 0 0.006 0.0038109 0 0.007
0.0038109 0 0.008 0.0038109 0 0.009 0.0038109 0 0.01 0.0038109
0 0.011 0.0038109 0 0.012 0.0038109 0 0.013 0.0038109 0
0.014 0.0038109 0 0.015 0.0038109 0 0.016 0.0038109 0 0.017
0.0038109 0 0.018 0.0038109 0 0.019 0.0038109 0 0.02 0.0038109
0 0.021 0.0038109 0 0.022 0.0038314 0 0 0.0038314 0
0.001 0.0038314 0 0.002 0.0038314 0 0.003 0.0038314 0 0.004
0.0038314 0 0.005 0.0038314 0 0.006 0.0038314 0 0.007 0.0038314
0 0.008 0.0038314 0 0.009 0.0038314 0 0.01 0.0038314 0
0.011 0.0038314 0 0.012 0.0038314 0 0.013 0.0038314 0 0.014
0.0038314 0 0.015 0.0038314 0 0.016 0.0038314 0 0.017 0.0038314
0 0.018 0.0038314 0 0.019 0.0038314 0 0.02 0.0038314 0
0.021 0.0038314 0 0.022 0.0038519 0 0 0.0038519 0 0.001
0.0038519 0 0.002 0.0038519 0 0.003 0.0038519 0 0.004 0.0038519
0 0.005 0.0038519 0 0.006 0.0038519 0 0.007 0.0038519 0
0.008 0.0038519 0 0.009 0.0038519 0 0.01 0.0038519 0 0.011
0.0038519 0 0.012 0.0038519 0 0.013 0.0038519 0 0.014 0.0038519
0 0.015 0.0038519 0 0.016 0.0038519 0 0.017 0.0038519 0
0.018 0.0038519 0 0.019 0.0038519 0 0.02 0.0038519 0 0.021
0.0038519 0 0.022 0.0038724 0 0 0.0038724 0 0.001 0.0038724
0 0.002 0.0038724 0 0.003 0.0038724 0 0.004 0.0038724 0
0.005 0.0038724 0 0.006 0.0038724 0 0.007 0.0038724 0 0.008
0.0038724 0 0.009 0.0038724 0 0.01 0.0038724 0 0.011 0.0038724
0 0.012 0.0038724 0 0.013 0.0038724 0 0.014 0.0038724 0
0.015 0.0038724 0 0.016 0.0038724 0 0.017 0.0038724 0 0.018
0.0038724 0 0.019 0.0038724 0 0.02 0.0038724 0 0.021 0.0038724
0 0.022 0.0038929 0 0 0.0038929 0 0.001 0.0038929 0
0.002 0.0038929 0 0.003 0.0038929 0 0.004 0.0038929 0 0.005
0.0038929 0 0.006 0.0038929 0 0.007 0.0038929 0 0.008 0.0038929
0 0.009 0.0038929 0 0.01 0.0038929 0 0.011 0.0038929 0
0.012 0.0038929 0 0.013 0.0038929 0 0.014 0.0038929 0 0.015
0.0038929 0 0.016 0.0038929 0 0.017 0.0038929 0 0.018 0.0038929
0 0.019 0.0038929 0 0.02 0.0038929 0 0.021 0.0038929 0
0.022 0.0039134 0 0 0.0039134 0 0.001 0.0039134 0 0.002
0.0039134 0 0.003 0.0039134 0 0.004 0.0039134 0 0.005 0.0039134
0 0.006 0.0039134 0 0.007 0.0039134 0 0.008 0.0039134 0
0.009 0.0039134 0 0.01 0.0039134 0 0.011 0.0039134 0 0.012
0.0039134 0 0.013 0.0039134 0 0.014 0.0039134 0 0.015 0.0039134
0 0.016 0.0039134 0 0.017 0.0039134 0 0.018 0.0039134 0
0.019 0.0039134 0 0.02 0.0039134 0 0.021 0.0039134 0 0.022
0.0039339 0 0 0.0039339 0 0.001 0.0039339 0 0.002 0.0039339
0 0.003 0.0039339 0 0.004 0.0039339 0 0.005 0.0039339 0
0.006 0.0039339 0 0.007 0.0039339 0 0.008 0.0039339 0 0.009
0.0039339 0 0.01 0.0039339 0 0.011 0.0039339 0 0.012 0.0039339
0 0.013 0.0039339 0 0.014 0.0039339 0 0.015 0.0039339 0
0.016 0.0039339 0 0.017 0.0039339 0 0.018 0.0039339 0 0.019
0.0039339 0 0.02 0.0039339 0 0.021 0.0039339 0 0.022 0.0039544
0 0 0.0039544 0 0.001 0.0039544 0 0.002 0.0039544 0
0.003 0.0039544 0 0.004 0.0039544 0 0.005 0.0039544 0 0.006
0.0039544 0 0.007 0.0039544 0 0.008 0.0039544 0 0.009 0.0039544
0 0.01 0.0039544 0 0.011 0.0039544 0 0.012 0.0039544 0
0.013 0.0039544 0 0.014 0.0039544 0 0.015 0.0039544 0 0.016
0.0039544 0 0.017 0.0039544 0 0.018 0.0039544 0 0.019 0.0039544
0 0.02 0.0039544 0 0.021 0.0039544 0 0.022 0.0035444 0.022
0 0.0035444 0.022 0.001 0.0035649 0.022 0.001 0.0035649 0.022 0
0.0035444 0.022 0.002 0.0035649 0.022 0.002 0.0035444 0.022 0.003 0.0035649
0.022 0.003 0.0035444 0.022 0.004 0.0035649 0.022 0.004 0.0035444 0.022
0.005 0.0035649 0.022 0.005 0.0035444 0.022 0.006 0.0035649 0.022 0.006
0.0035444 0.022 0.007 0.0035649 0.022 0.007 0.0035444 0.022 0.008 0.0035649
0.022 0.008 0.0035444 0.022 0.009 0.0035649 0.022 0.009 0.0035444 0.022
0.01 0.0035649 0.022 0.01 0.0035444 0.022 0.011 0.0035649 0.022 0.011
0.0035444 0.022 0.012 0.0035649 0.022 0.012 0.0035444 0.022 0.013 0.0035649
0.022 0.013 0.0035444 0.022 0.014 0.0035649 0.022 0.014 0.0035444 0.022
0.015 0.0035649 0.022 0.015 0.0035444 0.022 0.016 0.0035649 0.022 0.016
0.0035444 0.022 0.017 0.0035649 0.022 0.017 0.0035444 0.022 0.018 0.0035649
0.022 0.018 0.0035444 0.022 0.019 0.0035649 0.022 0.019 0.0035444 0.022
0.02 0.0035649 0.022 0.02 0.0035444 0.022 0.021 0.0035649 0.022 0.021
0.0035444 0.022 0.022 0.0035649 0.022 0.022 0.0035854 0.022 0.001 0.0035854
0.022 0 0.0035854 0.022 0.002 0.0035854 0.022 0.003 0.0035854 0.022
0.004 0.0035854 0.022 0.005 0.0035854 0.022 0.006 0.0035854 0.022 0.007
0.0035854 0.022 0.008 0.0035854 0.022 0.009 0.0035854 0.022 0.01 0.0035854
0.022 0.011 0.0035854 0.022 0.012 0.0035854 0.022 0.013 0.0035854 0.022
[...]
CELL_DATA 2640
FIELD attributes 16
patchID 1 2640 float
1 1 1 1 1 1 1 1 1 1 1
1 1 1 1 1 1 1 1 1 1
1 1 1 1 1 1 1 1 1 1
1 1 1 1 1 1 1 1 1 1
1 1 1 1 1 1 1 1 1 1
1 1 1 1 1 1 1 1 1 1
1 1 1 1 1 1 1 1 1 1
1 1 1 1 1 1 1 1 1 1
1 1 1 1 1 1 1 1 1 1
1 1 1 1 1 1 1 1 1 1
1 1 1 1 1 1 1 1 1 1
1 1 1 1 1 1 1 1 1 1
1 1 1 1 1 1 1 1 1 1
1 1 1 1 1 1 1 1 1 1
1 1 1 1 1 1 1 1 1 1
1 1 1 1 1 1 1 1 1 1
1 1 1 1 1 1 1 1 1 1
1 1 1 1 1 1 1 1 1 1
1 1 1 1 1 1 1 1 1 1
1 1 1 1 1 1 1 1 1 1
1 1 1 1 1 1 1 1 1 1
1 1 1 1 1 1 1 1 1 1
1 1 1 1 1 1 1 1 1 1
1 1 1 1 1 1 1 1 1 1
1 1 1 1 1 1 1 1 1 1
1 1 1 1 1 1 1 1 1 1
1 1 1 1 1 1 1 1 1 1
1 1 1 1 1 1 1 1 1 1
1 1 1 1 1 1 1 1 1 1
1 1 1 1 1 1 1 1 1 1
1 1 1 1 1 1 1 1 1 1
1 1 1 1 1 1 1 1 1 1
1 1 1 1 1 1 1 1 1 1
1 1 1 1 1 1 1 1 1 1
1 1 1 1 1 1 1 1 1 1
1 1 1 1 1 1 1 1 1 1
1 1 1 1 1 1 1 1 1 1
1 1 1 1 1 1 1 1 1 1
1 1 1 1 1 1 1 1 1 1
1 1 1 1 1 1 1 1 1 1
1 1 1 1 1 1 1 1 1 1
1 1 1 1 1 1 1 1 1 1
1 1 1 1 1 1 1 1 1 1
1 1 1 1 1 1 1 1 1 1
1 1 1 1 1 1 1 1 1 1
1 1 1 1 1 1 1 1 1 1
1 1 1 1 1 1 1 1 1 1
1 1 1 1 1 1 1 1 1 1
1 1 1 1 1 1 1 1 1 1
1 1 1 1 1 1 1 1 1 1
1 1 1 1 1 1 1 1 1 1
1 1 1 1 1 1 1 1 1 1
1 1 1 1 1 1 1 1 1 1
1 1 1 1 1 1 1 1 1 1
1 1 1 1 1 1 1 1 1 1
1 1 1 1 1 1 1 1 1 1
1 1 1 1 1 1 1 1 1 1
1 1 1 1 1 1 1 1 1 1
1 1 1 1 1 1 1 1 1 1
1 1 1 1 1 1 1 1 1 1
1 1 1 1 1 1 1 1 1 1
1 1 1 1 1 1 1 1 1 1
1 1 1 1 1 1 1 1 1 1
1 1 1 1 1 1 1 1 1 1
1 1 1 1 1 1 1 1 1 1
1 1 1 1 1 1 1 1 1 1
1 1 1 1 1 1 1 1 1 1
1 1 1 1 1 1 1 1 1 1
1 1 1 1 1 1 1 1 1 1
1 1 1 1 1 1 1 1 1 1
1 1 1 1 1 1 1 1 1 1
1 1 1 1 1 1 1 1 1 1
1 1 1 1 1 1 1 1 1 1
1 1 1 1 1 1 1 1 1 1
1 1 1 1 1 1 1 1 1 1
1 1 1 1 1 1 1 1 1 1
1 1 1 1 1 1 1 1 1 1
1 1 1 1 1 1 1 1 1 1
1 1 1 1 1 1 1 1 1 1
1 1 1 1 1 1 1 1 1 1
1 1 1 1 1 1 1 1 1 1
1 1 1 1 1 1 1 1 1 1
1 1 1 1 1 1 1 1 1 1
1 1 1 1 1 1 1 1 1 1
1 1 1 1 1 1 1 1 1 1
1 1 1 1 1 1 1 1 1 1
1 1 1 1 1 1 1 1 1 1
1 1 1 1 1 1 1 1 1 1
1 1 1 1 1 1 1 1 1 1
1 1 1 1 1 1 1 1 1 1
1 1 1 1 1 1 1 1 1 1
1 1 1 1 1 1 1 1 1 1
1 1 1 1 1 1 1 1 1 1
1 1 1 1 1 1 1 1 1 1
1 1 1 1 1 1 1 1 1 1
1 1 1 1 1 1 1 1 1 1
1 1 1 1 1 1 1 1 1 1
1 1 1 1 1 1 1 1 1 1
1 1 1 1 1 1 1 1 1 1
1 1 1 1 1 1 1 1 1 1
1 1 1 1 1 1 1 1 1 1
1 1 1 1 1 1 1 1 1 1
1 1 1 1 1 1 1 1 1 1
1 1 1 1 1 1 1 1 1 1
1 1 1 1 1 1 1 1 1 1
1 1 1 1 1 1 1 1 1 1
1 1 1 1 1 1 1 1 1 1
1 1 1 1 1 1 1 1 1 1
1 1 1 1 1 1 1 1 1 1
1 1 1 1 1 1 1 1 1 1
1 1 1 1 1 1 1 1 1 1
1 1 1 1 1 1 1 1 1 1
1 1 1 1 1 1 1 1 1 1
1 1 1 1 1 1 1 1 1 1
1 1 1 1 1 1 1 1 1 1
1 1 1 1 1 1 1 1 1 1
1 1 1 1 1 1 1 1 1 1
1 1 1 1 1 1 1 1 1 1
1 1 1 1 1 1 1 1 1 1
1 1 1 1 1 1 1 1 1 1
1 1 1 1 1 1 1 1 1 1
1 1 1 1 1 1 1 1 1 1
1 1 1 1 1 1 1 1 1 1
1 1 1 1 1 1 1 1 1 1
1 1 1 1 1 1 1 1 1 1
1 1 1 1 1 1 1 1 1 1
1 1 1 1 1 1 1 1 1 1
1 1 1 1 1 1 1 1 1 1
1 1 1 1 1 1 1 1 1 1
1 1 1 1 1 1 1 1 1 1
1 1 1 1 1 1 1 1 1 1
1 1 1 1 1 1 1 1 1 1
1 1 1 1 1 1 1 1 1 1
1 1 1 1 1 1 1 1 1 1
1 1 1 1 1 1 1 1 1 1
1 1 1 1 1 1 1 1 1 1
1 1 1 1 1 1 1 1 1 1
1 1 1 1 1 1 1 1 1 1
1 1 1 1 1 1 1 1 1 1
1 1 1 1 1 1 1 1 1 1
1 1 1 1 1 1 1 1 1 1
1 1 1 1 1 1 1 1 1 1
1 1 1 1 1 1 1 1 1 1
1 1 1 1 1 1 1 1 1 1
1 1 1 1 1 1 1 1 1 1
1 1 1 1 1 1 1 1 1 1
1 1 1 1 1 1 1 1 1 1
1 1 1 1 1 1 1 1 1 1
1 1 1 1 1 1 1 1 1 1
1 1 1 1 1 1 1 1 1 1
1 1 1 1 1 1 1 1 1 1
1 1 1 1 1 1 1 1 1 1
1 1 1 1 1 1 1 1 1 1
1 1 1 1 1 1 1 1 1 1
1 1 1 1 1 1 1 1 1 1
1 1 1 1 1 1 1 1 1 1
1 1 1 1 1 1 1 1 1 1
1 1 1 1 1 1 1 1 1 1
1 1 1 1 1 1 1 1 1 1
1 1 1 1 1 1 1 1 1 1
1 1 1 1 1 1 1 1 1 1
1 1 1 1 1 1 1 1 1 1
1 1 1 1 1 1 1 1 1 1
1 1 1 1 1 1 1 1 1 1
1 1 1 1 1 1 1 1 1 1
1 1 1 1 1 1 1 1 1 1
1 1 1 1 1 1 1 1 1 1
1 1 1 1 1 1 1 1 1 1
1 1 1 1 1 1 1 1 1 1
1 1 1 1 1 1 1 1 1 1
1 1 1 1 1 1 1 1 1 1
1 1 1 1 1 1 1 1 1 1
1 1 1 1 1 1 1 1 1 1
1 1 1 1 1 1 1 1 1 1
1 1 1 1 1 1 1 1 1 1
1 1 1 1 1 1 1 1 1 1
1 1 1 1 1 1 1 1 1 1
1 1 1 1 1 1 1 1 1 1
1 1 1 1 1 1 1 1 1 1
1 1 1 1 1 1 1 1 1 1
1 1 1 1 1 1 1 1 1 1
1 1 1 1 1 1 1 1 1 1
1 1 1 1 1 1 1 1 1 1
1 1 1 1 1 1 1 1 1 1
1 1 1 1 1 1 1 1 1 1
1 1 1 1 1 1 1 1 1 1
1 1 1 1 1 1 1 1 1 1
1 1 1 1 1 1 1 1 1 1
1 1 1 1 1 1 1 1 1 1
1 1 1 1 1 1 1 1 1 1
1 1 1 1 1 1 1 1 1 1
1 1 1 1 1 1 1 1 1 1
1 1 1 1 1 1 1 1 1 1
1 1 1 1 1 1 1 1 1 1
1 1 1 1 1 1 1 1 1 1
1 1 1 1 1 1 1 1 1 1
1 1 1 1 1 1 1 1 1 1
1 1 1 1 1 1 1 1 1 1
1 1 1 1 1 1 1 1 1 1
1 1 1 1 1 1 1 1 1 1
1 1 1 1 1 1 1 1 1 1
1 1 1 1 1 1 1 1 1 1
1 1 1 1 1 1 1 1 1 1
1 1 1 1 1 1 1 1 1 1
1 1 1 1 1 1 1 1 1 1
1 1 1 1 1 1 1 1 1 1
1 1 1 1 1 1 1 1 1 1
1 1 1 1 1 1 1 1 1 1
1 1 1 1 1 1 1 1 1 1
1 1 1 1 1 1 1 1 1 1
1 1 1 1 1 1 1 1 1 1
1 1 1 1 1 1 1 1 1 1
1 1 1 1 1 1 1 1 1 1
1 1 1 1 1 1 1 1 1 1
1 1 1 1 1 1 1 1 1 1
1 1 1 1 1 1 1 1 1 1
1 1 1 1 1 1 1 1 1 1
1 1 1 1 1 1 1 1 1 1
1 1 1 1 1 1 1 1 1 1
1 1 1 1 1 1 1 1 1 1
1 1 1 1 1 1 1 1 1 1
1 1 1 1 1 1 1 1 1 1
1 1 1 1 1 1 1 1 1 1
1 1 1 1 1 1 1 1 1 1
1 1 1 1 1 1 1 1 1 1
1 1 1 1 1 1 1 1 1 1
1 1 1 1 1 1 1 1 1 1
1 1 1 1 1 1 1 1 1 1
1 1 1 1 1 1 1 1 1 1
1 1 1 1 1 1 1 1 1 1
1 1 1 1 1 1 1 1 1 1
1 1 1 1 1 1 1 1 1 1
1 1 1 1 1 1 1 1 1 1
1 1 1 1 1 1 1 1 1 1
1 1 1 1 1 1 1 1 1 1
1 1 1 1 1 1 1 1 1 1
1 1 1 1 1 1 1 1 1 1
1 1 1 1 1 1 1 1 1 1
1 1 1 1 1 1 1 1 1 1
1 1 1 1 1 1 1 1 1 1
1 1 1 1 1 1 1 1 1 1
1 1 1 1 1 1 1 1 1 1
1 1 1 1 1 1 1 1 1 1
1 1 1 1 1 1 1 1 1 1
1 1 1 1 1 1 1 1 1 1
1 1 1 1 1 1 1 1 1 1
1 1 1 1 1 1 1 1 1 1
1 1 1 1 1 1 1 1 1 1
1 1 1 1 1 1 1 1 1 1
1 1 1 1 1 1 1 1 1 1
1 1 1 1 1 1 1 1 1 1
1 1 1 1 1 1 1 1 1 1
1 1 1 1 1 1 1 1 1 1
1 1 1 1 1 1 1 1 1 1
1 1 1 1 1 1 1 1 1 1
1 1 1 1 1 1 1 1 1 1
1 1 1 1 1 1 1 1 1 1
1 1 1 1 1 1 1 1 1 1
1 1 1 1 1 1 1 1 1 1
1 1 1 1 1 1 1 1 1 1
1 1 1 1 1 1 1 1 1 1
1 1 1 1 1 1 1 1 1 1
1 1 1 1 1 1 1 1 1 1
1 1 1 1 1 1 1 1 1 
diffH2Ofuel 1 2640 float
0 0 0 0 0 0 0 0 0 0 0
0 0 0 0 0 0 0 0 0 0
0 0 0 0 0 0 0 0 0 0
0 0 0 0 0 0 0 0 0 0
0 0 0 0 0 0 0 0 0 0
0 0 0 0 0 0 0 0 0 0
0 0 0 0 0 0 0 0 0 0
0 0 0 0 0 0 0 0 0 0
0 0 0 0 0 0 0 0 0 0
0 0 0 0 0 0 0 0 0 0
0 0 0 0 0 0 0 0 0 0
0 0 0 0 0 0 0 0 0 0
0 0 0 0 0 0 0 0 0 0
0 0 0 0 0 0 0 0 0 0
0 0 0 0 0 0 0 0 0 0
0 0 0 0 0 0 0 0 0 0
0 0 0 0 0 0 0 0 0 0
0 0 0 0 0 0 0 0 0 0
0 0 0 0 0 0 0 0 0 0
0 0 0 0 0 0 0 0 0 0
0 0 0 0 0 0 0 0 0 0
0 0 0 0 0 0 0 0 0 0
0 0 0 0 0 0 0 0 0 0
0 0 0 0 0 0 0 0 0 0
0 0 0 0 0 0 0 0 0 0
0 0 0 0 0 0 0 0 0 0
0 0 0 0 0 0 0 0 0 0
0 0 0 0 0 0 0 0 0 0
0 0 0 0 0 0 0 0 0 0
0 0 0 0 0 0 0 0 0 0
0 0 0 0 0 0 0 0 0 0
0 0 0 0 0 0 0 0 0 0
0 0 0 0 0 0 0 0 0 0
0 0 0 0 0 0 0 0 0 0
0 0 0 0 0 0 0 0 0 0
0 0 0 0 0 0 0 0 0 0
0 0 0 0 0 0 0 0 0 0
0 0 0 0 0 0 0 0 0 0
0 0 0 0 0 0 0 0 0 0
0 0 0 0 0 0 0 0 0 0
0 0 0 0 0 0 0 0 0 0
0 0 0 0 0 0 0 0 0 0
0 0 0 0 0 0 0 0 0 0
0 0 0 0 0 0 0 0 0 0
0 0 0 0 0 0 0 0 0 0
0 0 0 0 0 0 0 0 0 0
0 0 0 0 0 0 0 0 0 0
0 0 0 0 0 0 0 0 0 0
0 0 0 0 0 0 0 0 0 0
0 0 0 0 0 0 0 0 0 0
0 0 0 0 0 0 0 0 0 0
0 0 0 0 0 0 0 0 0 0
0 0 0 0 0 0 0 0 0 0
0 0 0 0 0 0 0 0 0 0
0 0 0 0 0 0 0 0 0 0
0 0 0 0 0 0 0 0 0 0
0 0 0 0 0 0 0 0 0 0
0 0 0 0 0 0 0 0 0 0
0 0 0 0 0 0 0 0 0 0
0 0 0 0 0 0 0 0 0 0
0 0 0 0 0 0 0 0 0 0
0 0 0 0 0 0 0 0 0 0
0 0 0 0 0 0 0 0 0 0
0 0 0 0 0 0 0 0 0 0
0 0 0 0 0 0 0 0 0 0
0 0 0 0 0 0 0 0 0 0
0 0 0 0 0 0 0 0 0 0
0 0 0 0 0 0 0 0 0 0
0 0 0 0 0 0 0 0 0 0
0 0 0 0 0 0 0 0 0 0
0 0 0 0 0 0 0 0 0 0
0 0 0 0 0 0 0 0 0 0
0 0 0 0 0 0 0 0 0 0
0 0 0 0 0 0 0 0 0 0
0 0 0 0 0 0 0 0 0 0
0 0 0 0 0 0 0 0 0 0
0 0 0 0 0 0 0 0 0 0
0 0 0 0 0 0 0 0 0 0
0 0 0 0 0 0 0 0 0 0
0 0 0 0 0 0 0 0 0 0
0 0 0 0 0 0 0 0 0 0
0 0 0 0 0 0 0 0 0 0
0 0 0 0 0 0 0 0 0 0
0 0 0 0 0 0 0 0 0 0
0 0 0 0 0 0 0 0 0 0
0 0 0 0 0 0 0 0 0 0
0 0 0 0 0 0 0 0 0 0
0 0 0 0 0 0 0 0 0 0
0 0 0 0 0 0 0 0 0 0
0 0 0 0 0 0 0 0 0 0
0 0 0 0 0 0 0 0 0 0
0 0 0 0 0 0 0 0 0 0
0 0 0 0 0 0 0 0 0 0
0 0 0 0 0 0 0 0 0 0
0 0 0 0 0 0 0 0 0 0
0 0 0 0 0 0 0 0 0 0
0 0 0 0 0 0 0 0 0 0
0 0 0 0 0 0 0 0 0 0
0 0 0 0 0 0 0 0 0 0
0 0 0 0 0 0 0 0 0 0
0 0 0 0 0 0 0 0 0 0
0 0 0 0 0 0 0 0 0 0
0 0 0 0 0 0 0 0 0 0
0 0 0 0 0 0 0 0 0 0
0 0 0 0 0 0 0 0 0 0
0 0 0 0 0 0 0 0 0 0
0 0 0 0 0 0 0 0 0 0
0 0 0 0 0 0 0 0 0 0
0 0 0 0 0 0 0 0 0 0
0 0 0 0 0 0 0 0 0 0
0 0 0 0 0 0 0 0 0 0
0 0 0 0 0 0 0 0 0 0
0 0 0 0 0 0 0 0 0 0
0 0 0 0 0 0 0 0 0 0
0 0 0 0 0 0 0 0 0 0
0 0 0 0 0 0 0 0 0 0
0 0 0 0 0 0 0 0 0 0
0 0 0 0 0 0 0 0 0 0
0 0 0 0 0 0 0 0 0 0
0 0 0 0 0 0 0 0 0 0
0 0 0 0 0 0 0 0 0 0
0 0 0 0 0 0 0 0 0 0
0 0 0 0 0 0 0 0 0 0
0 0 0 0 0 0 0 0 0 0
0 0 0 0 0 0 0 0 0 0
0 0 0 0 0 0 0 0 0 0
0 0 0 0 0 0 0 0 0 0
0 0 0 0 0 0 0 0 0 0
0 0 0 0 0 0 0 0 0 0
0 0 0 0 0 0 0 0 0 0
0 0 0 0 0 0 0 0 0 0
0 0 0 0 0 0 0 0 0 0
0 0 0 0 0 0 0 0 0 0
0 0 0 0 0 0 0 0 0 0
0 0 0 0 0 0 0 0 0 0
0 0 0 0 0 0 0 0 0 0
0 0 0 0 0 0 0 0 0 0
0 0 0 0 0 0 0 0 0 0
0 0 0 0 0 0 0 0 0 0
0 0 0 0 0 0 0 0 0 0
0 0 0 0 0 0 0 0 0 0
0 0 0 0 0 0 0 0 0 0
0 0 0 0 0 0 0 0 0 0
0 0 0 0 0 0 0 0 0 0
0 0 0 0 0 0 0 0 0 0
0 0 0 0 0 0 0 0 0 0
0 0 0 0 0 0 0 0 0 0
0 0 0 0 0 0 0 0 0 0
0 0 0 0 0 0 0 0 0 0
0 0 0 0 0 0 0 0 0 0
0 0 0 0 0 0 0 0 0 0
0 0 0 0 0 0 0 0 0 0
0 0 0 0 0 0 0 0 0 0
0 0 0 0 0 0 0 0 0 0
0 0 0 0 0 0 0 0 0 0
0 0 0 0 0 0 0 0 0 0
0 0 0 0 0 0 0 0 0 0
0 0 0 0 0 0 0 0 0 0
0 0 0 0 0 0 0 0 0 0
0 0 0 0 0 0 0 0 0 0
0 0 0 0 0 0 0 0 0 0
0 0 0 0 0 0 0 0 0 0
0 0 0 0 0 0 0 0 0 0
0 0 0 0 0 0 0 0 0 0
0 0 0 0 0 0 0 0 0 0
0 0 0 0 0 0 0 0 0 0
0 0 0 0 0 0 0 0 0 0
0 0 0 0 0 0 0 0 0 0
0 0 0 0 0 0 0 0 0 0
0 0 0 0 0 0 0 0 0 0
0 0 0 0 0 0 0 0 0 0
0 0 0 0 0 0 0 0 0 0
0 0 0 0 0 0 0 0 0 0
0 0 0 0 0 0 0 0 0 0
0 0 0 0 0 0 0 0 0 0
0 0 0 0 0 0 0 0 0 0
0 0 0 0 0 0 0 0 0 0
0 0 0 0 0 0 0 0 0 0
0 0 0 0 0 0 0 0 0 0
0 0 0 0 0 0 0 0 0 0
0 0 0 0 0 0 0 0 0 0
0 0 0 0 0 0 0 0 0 0
0 0 0 0 0 0 0 0 0 0
0 0 0 0 0 0 0 0 0 0
0 0 0 0 0 0 0 0 0 0
0 0 0 0 0 0 0 0 0 0
0 0 0 0 0 0 0 0 0 0
0 0 0 0 0 0 0 0 0 0
0 0 0 0 0 0 0 0 0 0
0 0 0 0 0 0 0 0 0 0
0 0 0 0 0 0 0 0 0 0
0 0 0 0 0 0 0 0 0 0
0 0 0 0 0 0 0 0 0 0
0 0 0 0 0 0 0 0 0 0
0 0 0 0 0 0 0 0 0 0
0 0 0 0 0 0 0 0 0 0
0 0 0 0 0 0 0 0 0 0
0 0 0 0 0 0 0 0 0 0
0 0 0 0 0 0 0 0 0 0
0 0 0 0 0 0 0 0 0 0
0 0 0 0 0 0 0 0 0 0
0 0 0 0 0 0 0 0 0 0
0 0 0 0 0 0 0 0 0 0
0 0 0 0 0 0 0 0 0 0
0 0 0 0 0 0 0 0 0 0
0 0 0 0 0 0 0 0 0 0
0 0 0 0 0 0 0 0 0 0
0 0 0 0 0 0 0 0 0 0
0 0 0 0 0 0 0 0 0 0
0 0 0 0 0 0 0 0 0 0
0 0 0 0 0 0 0 0 0 0
0 0 0 0 0 0 0 0 0 0
0 0 0 0 0 0 0 0 0 0
0 0 0 0 0 0 0 0 0 0
0 0 0 0 0 0 0 0 0 0
0 0 0 0 0 0 0 0 0 0
0 0 0 0 0 0 0 0 0 0
0 0 0 0 0 0 0 0 0 0
0 0 0 0 0 0 0 0 0 0
0 0 0 0 0 0 0 0 0 0
0 0 0 0 0 0 0 0 0 0
0 0 0 0 0 0 0 0 0 0
0 0 0 0 0 0 0 0 0 0
0 0 0 0 0 0 0 0 0 0
0 0 0 0 0 0 0 0 0 0
0 0 0 0 0 0 0 0 0 0
0 0 0 0 0 0 0 0 0 0
0 0 0 0 0 0 0 0 0 0
0 0 0 0 0 0 0 0 0 0
0 0 0 0 0 0 0 0 0 0
0 0 0 0 0 0 0 0 0 0
0 0 0 0 0 0 0 0 0 0
0 0 0 0 0 0 0 0 0 0
0 0 0 0 0 0 0 0 0 0
0 0 0 0 0 0 0 0 0 0
0 0 0 0 0 0 0 0 0 0
0 0 0 0 0 0 0 0 0 0
0 0 0 0 0 0 0 0 0 0
0 0 0 0 0 0 0 0 0 0
0 0 0 0 0 0 0 0 0 0
0 0 0 0 0 0 0 0 0 0
0 0 0 0 0 0 0 0 0 0
0 0 0 0 0 0 0 0 0 0
0 0 0 0 0 0 0 0 0 0
0 0 0 0 0 0 0 0 0 0
0 0 0 0 0 0 0 0 0 0
0 0 0 0 0 0 0 0 0 0
0 0 0 0 0 0 0 0 0 0
0 0 0 0 0 0 0 0 0 0
0 0 0 0 0 0 0 0 0 0
0 0 0 0 0 0 0 0 0 0
0 0 0 0 0 0 0 0 0 0
0 0 0 0 0 0 0 0 0 0
0 0 0 0 0 0 0 0 0 0
0 0 0 0 0 0 0 0 0 0
0 0 0 0 0 0 0 0 0 0
0 0 0 0 0 0 0 0 0 0
0 0 0 0 0 0 0 0 0 0
0 0 0 0 0 0 0 0 0 0
0 0 0 0 0 0 0 0 0 0
0 0 0 0 0 0 0 0 0 0
0 0 0 0 0 0 0 0 0 0
0 0 0 0 0 0 0 0 0 0
0 0 0 0 0 0 0 0 0 
XCH3OHfuel 1 2640 float
0.833273 0.833488 0.83365 0.83365 0.833532 0.833425 0.833323 0.833219 0.833113 0.833011 0.832909
0.832811 0.832714 0.832615 0.832515 0.832411 0.832308 0.832196 0.832076 0.831936 0.831759
0.83155 0.833489 0.833702 0.833867 0.833868 0.833751 0.833645 0.833542 0.833437 0.833332
0.833229 0.833127 0.833029 0.832932 0.832833 0.832733 0.832629 0.832525 0.832413 0.832294
0.832153 0.831976 0.831766 0.833689 0.833894 0.834065 0.834071 0.833958 0.833853 0.833751
0.833646 0.833541 0.833439 0.833338 0.83324 0.833143 0.833044 0.832945 0.832841 0.832737
0.832625 0.832505 0.832365 0.832188 0.831977 0.833867 0.834058 0.834236 0.834248 0.834145
0.834045 0.833944 0.833841 0.833737 0.833637 0.833538 0.83344 0.833344 0.833246 0.833147
0.833044 0.83294 0.832828 0.832709 0.832569 0.832392 0.832178 0.834023 0.834195 0.834379
0.834397 0.834307 0.834215 0.834118 0.834018 0.833917 0.833819 0.833722 0.833627 0.833532
0.833436 0.833338 0.833236 0.833132 0.833021 0.832902 0.832763 0.832586 0.832368 0.834157
0.834308 0.834493 0.834517 0.834442 0.834361 0.834271 0.834175 0.834078 0.833984 0.83389
0.833798 0.833705 0.833611 0.833515 0.833415 0.833312 0.833202 0.833083 0.832945 0.832767
0.832545 0.834271 0.834401 0.834583 0.834611 0.834552 0.834481 0.8344 0.834311 0.834219
0.834129 0.83404 0.833952 0.833862 0.833771 0.833677 0.833578 0.833477 0.833368 0.833251
0.833113 0.832935 0.832708 0.834369 0.834478 0.834653 0.834685 0.834636 0.834577 0.834505
0.834424 0.834339 0.834255 0.834172 0.834087 0.834002 0.833914 0.833822 0.833726 0.833627
0.833519 0.833403 0.833266 0.833087 0.832855 0.834453 0.834543 0.834708 0.834739 0.8347
0.834651 0.834588 0.834516 0.834439 0.834362 0.834284 0.834205 0.834124 0.83404 0.833951
0.833858 0.83376 0.833655 0.833539 0.833404 0.833224 0.832986 0.834525 0.834596 0.834752
0.83478 0.834747 0.834706 0.834652 0.834589 0.83452 0.83445 0.834379 0.834306 0.834229
0.834149 0.834063 0.833973 0.833877 0.833774 0.833659 0.833525 0.833345 0.833101 0.834585
0.834641 0.834787 0.83481 0.834782 0.834747 0.8347 0.834645 0.834584 0.834522 0.834458
0.83439 0.834318 0.834241 0.834159 0.834071 0.833978 0.833876 0.833763 0.833631 0.833449
0.8332 0.834634 0.834676 0.834813 0.834832 0.834807 0.834776 0.834736 0.834688 0.834636
0.83458 0.834521 0.834458 0.834391 0.834318 0.834239 0.834154 0.834063 0.833963 0.833851
0.83372 0.833538 0.833285 0.834674 0.834705 0.834834 0.834848 0.834824 0.834797 0.834762
0.834721 0.834675 0.834626 0.834572 0.834514 0.83445 0.834381 0.834305 0.834222 0.834132
0.834035 0.833924 0.833794 0.833612 0.833357 0.834706 0.834729 0.834849 0.834858 0.834836
0.834811 0.83478 0.834745 0.834706 0.834661 0.834612 0.834557 0.834496 0.83443 0.834356
0.834275 0.834188 0.834091 0.833982 0.833853 0.833671 0.833415 0.834732 0.834753 0.83486
0.834864 0.834843 0.834821 0.834794 0.834764 0.834728 0.834687 0.834641 0.834589 0.834531
0.834467 0.834396 0.834316 0.83423 0.834135 0.834026 0.833898 0.833717 0.833461 0.834751
0.834774 0.834867 0.834868 0.834847 0.834827 0.834804 0.834777 0.834744 0.834706 0.834662
0.834613 0.834557 0.834494 0.834424 0.834346 0.834261 0.834167 0.834058 0.83393 0.83375
0.833495 0.834766 0.834793 0.83487 0.834869 0.83485 0.834832 0.834811 0.834786 0.834755
0.834719 0.834677 0.834628 0.834574 0.834512 0.834443 0.834366 0.834282 0.834188 0.83408
0.833952 0.833772 0.833519 0.834775 0.834806 0.834872 0.834869 0.834852 0.834835 0.834815
0.834791 0.834761 0.834726 0.834685 0.834637 0.834584 0.834523 0.834454 0.834378 0.834294
0.8342 0.834093 0.833965 0.833785 0.833533 0.83478 0.834813 0.834872 0.834869 0.834853
0.834836 0.834817 0.834793 0.834764 0.83473 0.834689 0.834642 0.834588 0.834528 0.83446
0.834384 0.8343 0.834206 0.834099 0.833971 0.833791 0.83354 0.834781 0.834816 0.834872
0.83487 0.834853 0.834837 0.834818 0.834794 0.834765 0.834731 0.83469 0.834643 0.83459
0.834529 0.834461 0.834385 0.834301 0.834208 0.8341 0.833973 0.833793 0.833542 0.833275
0.833488 0.83365 0.83365 0.833531 0.833427 0.833324 0.83322 0.833114 0.83301 0.832911
0.832812 0.832714 0.832616 0.832514 0.832412 0.832308 0.832196 0.832077 0.831934 0.83176
0.831549 0.833491 0.833702 0.833867 0.833869 0.833751 0.833646 0.833543 0.833438 0.833332
0.833229 0.833129 0.83303 0.832932 0.832834 0.832732 0.83263 0.832525 0.832413 0.832294
0.832152 0.831977 0.831766 0.83369 0.833894 0.834065 0.834071 0.833958 0.833854 0.833751
0.833647 0.833542 0.833439 0.833339 0.833241 0.833143 0.833045 0.832944 0.832842 0.832737
0.832625 0.832506 0.832364 0.832189 0.831976 0.833868 0.834058 0.834236 0.834248 0.834145
0.834046 0.833945 0.833842 0.833738 0.833637 0.833538 0.833441 0.833344 0.833247 0.833147
0.833045 0.83294 0.832829 0.832709 0.832568 0.832392 0.832178 0.834024 0.834195 0.834379
0.834397 0.834307 0.834216 0.834119 0.834019 0.833918 0.83382 0.833723 0.833628 0.833533
0.833436 0.833337 0.833236 0.833133 0.833022 0.832902 0.832762 0.832586 0.832368 0.834158
0.834308 0.834494 0.834517 0.834442 0.834361 0.834271 0.834176 0.834078 0.833984 0.833891
0.833798 0.833706 0.833611 0.833515 0.833415 0.833312 0.833202 0.833083 0.832944 0.832767
0.832545 0.834272 0.834401 0.834583 0.834612 0.834552 0.834482 0.8344 0.834311 0.834219
0.83413 0.834041 0.833952 0.833863 0.833771 0.833677 0.833579 0.833477 0.833368 0.833251
0.833112 0.832935 0.832707 0.83437 0.834479 0.834653 0.834685 0.834637 0.834577 0.834505
0.834425 0.834339 0.834255 0.834172 0.834088 0.834002 0.833914 0.833822 0.833727 0.833627
0.83352 0.833403 0.833265 0.833087 0.832854 0.834454 0.834543 0.834709 0.83474 0.8347
0.834651 0.834589 0.834517 0.834439 0.834362 0.834285 0.834206 0.834125 0.83404 0.833951
0.833858 0.83376 0.833655 0.833539 0.833403 0.833224 0.832985 0.834525 0.834597 0.834752
0.83478 0.834747 0.834706 0.834652 0.834589 0.83452 0.83445 0.834379 0.834306 0.83423
0.834149 0.834064 0.833973 0.833877 0.833774 0.833659 0.833525 0.833344 0.8331 0.834585
0.834641 0.834787 0.83481 0.834782 0.834747 0.834701 0.834646 0.834585 0.834523 0.834458
0.83439 0.834318 0.834242 0.834159 0.834072 0.833978 0.833876 0.833763 0.83363 0.833449
0.8332 0.834635 0.834677 0.834814 0.834832 0.834807 0.834776 0.834736 0.834689 0.834636
0.834581 0.834522 0.834459 0.834391 0.834318 0.834239 0.834154 0.834063 0.833963 0.833851
0.833719 0.833538 0.833285 0.834675 0.834706 0.834834 0.834848 0.834825 0.834797 0.834762
0.834721 0.834676 0.834626 0.834573 0.834514 0.83445 0.834381 0.834305 0.834222 0.834132
0.834035 0.833923 0.833793 0.833611 0.833356 0.834706 0.83473 0.834849 0.834858 0.834836
0.834811 0.834781 0.834746 0.834706 0.834661 0.834612 0.834557 0.834497 0.83443 0.834356
0.834276 0.834188 0.834092 0.833981 0.833852 0.833671 0.833415 0.834732 0.834753 0.83486
0.834865 0.834843 0.834821 0.834794 0.834764 0.834728 0.834688 0.834642 0.83459 0.834532
0.834467 0.834396 0.834317 0.83423 0.834135 0.834026 0.833897 0.833716 0.833461 0.834752
0.834775 0.834867 0.834868 0.834847 0.834828 0.834804 0.834777 0.834745 0.834706 0.834663
0.834613 0.834557 0.834494 0.834424 0.834346 0.834261 0.834167 0.834058 0.83393 0.83375
0.833495 0.834766 0.834793 0.834871 0.834869 0.83485 0.834832 0.834811 0.834786 0.834755
0.834719 0.834677 0.834629 0.834574 0.834512 0.834443 0.834366 0.834282 0.834188 0.83408
0.833952 0.833772 0.833518 0.834776 0.834806 0.834872 0.834869 0.834852 0.834835 0.834815
0.834791 0.834762 0.834726 0.834685 0.834638 0.834584 0.834523 0.834454 0.834378 0.834294
0.8342 0.834092 0.833965 0.833785 0.833533 0.83478 0.834813 0.834872 0.83487 0.834853
0.834837 0.834817 0.834794 0.834765 0.83473 0.834689 0.834642 0.834589 0.834528 0.83446
0.834384 0.8343 0.834206 0.834099 0.833971 0.833791 0.833539 0.834782 0.834816 0.834872
0.83487 0.834853 0.834837 0.834818 0.834795 0.834766 0.834731 0.83469 0.834643 0.83459
0.83453 0.834462 0.834385 0.834301 0.834208 0.8341 0.833973 0.833792 0.833541 0.833273
0.833111 0.8329 0.832948 0.833149 0.833088 0.83322 0.833256 0.833126 0.833316 0.833529
0.833197 0.83334 0.833359 0.833234 0.833545 0.833553 0.833246 0.833369 0.833374 0.833259
0.833576 0.833574 0.833257 0.833375 0.833369 0.833246 0.833554 0.833548 0.833237 0.83336
0.833339 0.833196 0.833528 0.833317 0.833127 0.833257 0.833221 0.833088 0.833151 0.83295
0.832902 0.833112 0.833275 0.833489 0.833322 0.8331 0.833151 0.833365 0.833296 0.833427
0.833462 0.833323 0.833529 0.833751 0.833395 0.833546 0.833565 0.833432 0.833766 0.833774
0.833445 0.833575 0.83358 0.833457 0.833798 0.833795 0.833455 0.833581 0.833575 0.833445
0.833775 0.833768 0.833435 0.833566 0.833545 0.833395 0.83375 0.83353 0.833324 0.833463
0.833428 0.833296 0.833367 0.833154 0.833102 0.833323 0.833491 0.833689 0.833513 0.833276
0.833337 0.833583 0.833495 0.833608 0.833641 0.833491 0.83374 0.833975 0.83357 0.833724
0.833743 0.833605 0.833986 0.833995 0.833618 0.833752 0.833757 0.833631 0.834018 0.834015
0.833629 0.833758 0.833753 0.833618 0.833996 0.833988 0.833607 0.833743 0.833723 0.833569
0.833974 0.83374 0.833492 0.833642 0.833609 0.833495 0.833586 0.833339 0.833278 0.833514
0.83369 0.833867 0.833685 0.833443 0.833524 0.833809 0.833702 0.833761 0.833791 0.833646
0.833956 0.834194 0.833741 0.833874 0.833892 0.833769 0.834201 0.83421 0.833785 0.833901
0.833906 0.833798 0.834232 0.834229 0.833795 0.833906 0.833901 0.833784 0.834211 0.834203