# vtk DataFile Version 2.0
agdlSides
ASCII
DATASET POLYDATA
POINTS 2772 float
0.0035444 0 0 0.0035649 0 0 0.0035649 0 0.001 0.0035444 0
0.001 0.0035649 0 0.002 0.0035444 0 0.002 0.0035649 0 0.003
0.0035444 0 0.003 0.0035649 0 0.004 0.0035444 0 0.004 0.0035649
0 0.005 0.0035444 0 0.005 0.0035649 0 0.006 0.0035444 0
0.006 0.0035649 0 0.007 0.0035444 0 0.007 0.0035649 0 0.008
0.0035444 0 0.008 0.0035649 0 0.009 0.0035444 0 0.009 0.0035649
0 0.01 0.0035444 0 0.01 0.0035649 0 0.011 0.0035444 0
0.011 0.0035649 0 0.012 0.0035444 0 0.012 0.0035649 0 0.013
0.0035444 0 0.013 0.0035649 0 0.014 0.0035444 0 0.014 0.0035649
0 0.015 0.0035444 0 0.015 0.0035649 0 0.016 0.0035444 0
0.016 0.0035649 0 0.017 0.0035444 0 0.017 0.0035649 0 0.018
0.0035444 0 0.018 0.0035649 0 0.019 0.0035444 0 0.019 0.0035649
0 0.02 0.0035444 0 0.02 0.0035649 0 0.021 0.0035444 0
0.021 0.0035649 0 0.022 0.0035444 0 0.022 0.0035854 0 0
0.0035854 0 0.001 0.0035854 0 0.002 0.0035854 0 0.003 0.0035854
0 0.004 0.0035854 0 0.005 0.0035854 0 0.006 0.0035854 0
0.007 0.0035854 0 0.008 0.0035854 0 0.009 0.0035854 0 0.01
0.0035854 0 0.011 0.0035854 0 0.012 0.0035854 0 0.013 0.0035854
0 0.014 0.0035854 0 0.015 0.0035854 0 0.016 0.0035854 0
0.017 0.0035854 0 0.018 0.0035854 0 0.019 0.0035854 0 0.02
0.0035854 0 0.021 0.0035854 0 0.022 0.0036059 0 0 0.0036059
0 0.001 0.0036059 0 0.002 0.0036059 0 0.003 0.0036059 0
0.004 0.0036059 0 0.005 0.0036059 0 0.006 0.0036059 0 0.007
0.0036059 0 0.008 0.0036059 0 0.009 0.0036059 0 0.01 0.0036059
0 0.011 0.0036059 0 0.012 0.0036059 0 0.013 0.0036059 0
0.014 0.0036059 0 0.015 0.0036059 0 0.016 0.0036059 0 0.017
0.0036059 0 0.018 0.0036059 0 0.019 0.0036059 0 0.02 0.0036059
0 0.021 0.0036059 0 0.022 0.0036264 0 0 0.0036264 0
0.001 0.0036264 0 0.002 0.0036264 0 0.003 0.0036264 0 0.004
0.0036264 0 0.005 0.0036264 0 0.006 0.0036264 0 0.007 0.0036264
0 0.008 0.0036264 0 0.009 0.0036264 0 0.01 0.0036264 0
0.011 0.0036264 0 0.012 0.0036264 0 0.013 0.0036264 0 0.014
0.0036264 0 0.015 0.0036264 0 0.016 0.0036264 0 0.017 0.0036264
0 0.018 0.0036264 0 0.019 0.0036264 0 0.02 0.0036264 0
0.021 0.0036264 0 0.022 0.0036469 0 0 0.0036469 0 0.001
0.0036469 0 0.002 0.0036469 0 0.003 0.0036469 0 0.004 0.0036469
0 0.005 0.0036469 0 0.006 0.0036469 0 0.007 0.0036469 0
0.008 0.0036469 0 0.009 0.0036469 0 0.01 0.0036469 0 0.011
0.0036469 0 0.012 0.0036469 0 0.013 0.0036469 0 0.014 0.0036469
0 0.015 0.0036469 0 0.016 0.0036469 0 0.017 0.0036469 0
0.018 0.0036469 0 0.019 0.0036469 0 0.02 0.0036469 0 0.021
0.0036469 0 0.022 0.0036674 0 0 0.0036674 0 0.001 0.0036674
0 0.002 0.0036674 0 0.003 0.0036674 0 0.004 0.0036674 0
0.005 0.0036674 0 0.006 0.0036674 0 0.007 0.0036674 0 0.008
0.0036674 0 0.009 0.0036674 0 0.01 0.0036674 0 0.011 0.0036674
0 0.012 0.0036674 0 0.013 0.0036674 0 0.014 0.0036674 0
0.015 0.0036674 0 0.016 0.0036674 0 0.017 0.0036674 0 0.018
0.0036674 0 0.019 0.0036674 0 0.02 0.0036674 0 0.021 0.0036674
0 0.022 0.0036879 0 0 0.0036879 0 0.001 0.0036879 0
0.002 0.0036879 0 0.003 0.0036879 0 0.004 0.0036879 0 0.005
0.0036879 0 0.006 0.0036879 0 0.007 0.0036879 0 0.008 0.0036879
0 0.009 0.0036879 0 0.01 0.0036879 0 0.011 0.0036879 0
0.012 0.0036879 0 0.013 0.0036879 0 0.014 0.0036879 0 0.015
0.0036879 0 0.016 0.0036879 0 0.017 0.0036879 0 0.018 0.0036879
0 0.019 0.0036879 0 0.02 0.0036879 0 0.021 0.0036879 0
0.022 0.0037084 0 0 0.0037084 0 0.001 0.0037084 0 0.002
0.0037084 0 0.003 0.0037084 0 0.004 0.0037084 0 0.005 0.0037084
0 0.006 0.0037084 0 0.007 0.0037084 0 0.008 0.0037084 0
0.009 0.0037084 0 0.01 0.0037084 0 0.011 0.0037084 0 0.012
0.0037084 0 0.013 0.0037084 0 0.014 0.0037084 0 0.015 0.0037084
0 0.016 0.0037084 0 0.017 0.0037084 0 0.018 0.0037084 0
0.019 0.0037084 0 0.02 0.0037084 0 0.021 0.0037084 0 0.022
0.0037289 0 0 0.0037289 0 0.001 0.0037289 0 0.002 0.0037289
0 0.003 0.0037289 0 0.004 0.0037289 0 0.005 0.0037289 0
0.006 0.0037289 0 0.007 0.0037289 0 0.008 0.0037289 0 0.009
0.0037289 0 0.01 0.0037289 0 0.011 0.0037289 0 0.012 0.0037289
0 0.013 0.0037289 0 0.014 0.0037289 0 0.015 0.0037289 0
0.016 0.0037289 0 0.017 0.0037289 0 0.018 0.0037289 0 0.019
0.0037289 0 0.02 0.0037289 0 0.021 0.0037289 0 0.022 0.0037494
0 0 0.0037494 0 0.001 0.0037494 0 0.002 0.0037494 0
0.003 0.0037494 0 0.004 0.0037494 0 0.005 0.0037494 0 0.006
0.0037494 0 0.007 0.0037494 0 0.008 0.0037494 0 0.009 0.0037494
0 0.01 0.0037494 0 0.011 0.0037494 0 0.012 0.0037494 0
0.013 0.0037494 0 0.014 0.0037494 0 0.015 0.0037494 0 0.016
0.0037494 0 0.017 0.0037494 0 0.018 0.0037494 0 0.019 0.0037494
0 0.02 0.0037494 0 0.021 0.0037494 0 0.022 0.0037699 0
0 0.0037699 0 0.001 0.0037699 0 0.002 0.0037699 0 0.003
0.0037699 0 0.004 0.0037699 0 0.005 0.0037699 0 0.006 0.0037699
0 0.007 0.0037699 0 0.008 0.0037699 0 0.009 0.0037699 0
0.01 0.0037699 0 0.011 0.0037699 0 0.012 0.0037699 0 0.013
0.0037699 0 0.014 0.0037699 0 0.015 0.0037699 0 0.016 0.0037699
0 0.017 0.0037699 0 0.018 0.0037699 0 0.019 0.0037699 0
0.02 0.0037699 0 0.021 0.0037699 0 0.022 0.0037904 0 0
0.0037904 0 0.001 0.0037904 0 0.002 0.0037904 0 0.003 0.0037904
0 0.004 0.0037904 0 0.005 0.0037904 0 0.006 0.0037904 0
0.007 0.0037904 0 0.008 0.0037904 0 0.009 0.0037904 0 0.01
0.0037904 0 0.011 0.0037904 0 0.012 0.0037904 0 0.013 0.0037904
0 0.014 0.0037904 0 0.015 0.0037904 0 0.016 0.0037904 0
0.017 0.0037904 0 0.018 0.0037904 0 0.019 0.0037904 0 0.02
0.0037904 0 0.021 0.0037904 0 0.022 0.0038109 0 0 0.0038109
0 0.001 0.0038109 0 0.002 0.0038109 0 0.003 0.0038109 0
0.004 0.0038109 0 0.005 0.0038109 0 0.006 0.0038109 0 0.007
0.0038109 0 0.008 0.0038109 0 0.009 0.0038109 0 0.01 0.0038109
0 0.011 0.0038109 0 0.012 0.0038109 0 0.013 0.0038109 0
0.014 0.0038109 0 0.015 0.0038109 0 0.016 0.0038109 0 0.017
0.0038109 0 0.018 0.0038109 0 0.019 0.0038109 0 0.02 0.0038109
0 0.021 0.0038109 0 0.022 0.0038314 0 0 0.0038314 0
0.001 0.0038314 0 0.002 0.0038314 0 0.003 0.0038314 0 0.004
0.0038314 0 0.005 0.0038314 0 0.006 0.0038314 0 0.007 0.0038314
0 0.008 0.0038314 0 0.009 0.0038314 0 0.01 0.0038314 0
0.011 0.0038314 0 0.012 0.0038314 0 0.013 0.0038314 0 0.014
0.0038314 0 0.015 0.0038314 0 0.016 0.0038314 0 0.017 0.0038314
0 0.018 0.0038314 0 0.019 0.0038314 0 0.02 0.0038314 0
0.021 0.0038314 0 0.022 0.0038519 0 0 0.0038519 0 0.001
0.0038519 0 0.002 0.0038519 0 0.003 0.0038519 0 0.004 0.0038519
0 0.005 0.0038519 0 0.006 0.0038519 0 0.007 0.0038519 0
0.008 0.0038519 0 0.009 0.0038519 0 0.01 0.0038519 0 0.011
0.0038519 0 0.012 0.0038519 0 0.013 0.0038519 0 0.014 0.0038519
0 0.015 0.0038519 0 0.016 0.0038519 0 0.017 0.0038519 0
0.018 0.0038519 0 0.019 0.0038519 0 0.02 0.0038519 0 0.021
0.0038519 0 0.022 0.0038724 0 0 0.0038724 0 0.001 0.0038724
0 0.002 0.0038724 0 0.003 0.0038724 0 0.004 0.0038724 0
0.005 0.0038724 0 0.006 0.0038724 0 0.007 0.0038724 0 0.008
0.0038724 0 0.009 0.0038724 0 0.01 0.0038724 0 0.011 0.0038724
0 0.012 0.0038724 0 0.013 0.0038724 0 0.014 0.0038724 0
0.015 0.0038724 0 0.016 0.0038724 0 0.017 0.0038724 0 0.018
0.0038724 0 0.019 0.0038724 0 0.02 0.0038724 0 0.021 0.0038724
0 0.022 0.0038929 0 0 0.0038929 0 0.001 0.0038929 0
0.002 0.0038929 0 0.003 0.0038929 0 0.004 0.0038929 0 0.005
0.0038929 0 0.006 0.0038929 0 0.007 0.0038929 0 0.008 0.0038929
0 0.009 0.0038929 0 0.01 0.0038929 0 0.011 0.0038929 0
0.012 0.0038929 0 0.013 0.0038929 0 0.014 0.0038929 0 0.015
0.0038929 0 0.016 0.0038929 0 0.017 0.0038929 0 0.018 0.0038929
0 0.019 0.0038929 0 0.02 0.0038929 0 0.021 0.0038929 0
0.022 0.0039134 0 0 0.0039134 0 0.001 0.0039134 0 0.002
0.0039134 0 0.003 0.0039134 0 0.004 0.0039134 0 0.005 0.0039134
0 0.006 0.0039134 0 0.007 0.0039134 0 0.008 0.0039134 0
0.009 0.0039134 0 0.01 0.0039134 0 0.011 0.0039134 0 0.012
0.0039134 0 0.013 0.0039134 0 0.014 0.0039134 0 0.015 0.0039134
0 0.016 0.0039134 0 0.017 0.0039134 0 0.018 0.0039134 0
0.019 0.0039134 0 0.02 0.0039134 0 0.021 0.0039134 0 0.022
0.0039339 0 0 0.0039339 0 0.001 0.0039339 0 0.002 0.0039339
0 0.003 0.0039339 0 0.004 0.0039339 0 0.005 0.0039339 0
0.006 0.0039339 0 0.007 0.0039339 0 0.008 0.0039339 0 0.009
0.0039339 0 0.01 0.0039339 0 0.011 0.0039339 0 0.012 0.0039339
0 0.013 0.0039339 0 0.014 0.0039339 0 0.015 0.0039339 0
0.016 0.0039339 0 0.017 0.0039339 0 0.018 0.0039339 0 0.019
0.0039339 0 0.02 0.0039339 0 0.021 0.0039339 0 0.022 0.0039544
0 0 0.0039544 0 0.001 0.0039544 0 0.002 0.0039544 0
0.003 0.0039544 0 0.004 0.0039544 0 0.005 0.0039544 0 0.006
0.0039544 0 0.007 0.0039544 0 0.008 0.0039544 0 0.009 0.0039544
0 0.01 0.0039544 0 0.011 0.0039544 0 0.012 0.0039544 0
0.013 0.0039544 0 0.014 0.0039544 0 0.015 0.0039544 0 0.016
0.0039544 0 0.017 0.0039544 0 0.018 0.0039544 0 0.019 0.0039544
0 0.02 0.0039544 0 0.021 0.0039544 0 0.022 0.0035444 0.022
0 0.0035444 0.022 0.001 0.0035649 0.022 0.001 0.0035649 0.022 0
0.0035444 0.022 0.002 0.0035649 0.022 0.002 0.0035444 0.022 0.003 0.0035649
0.022 0.003 0.0035444 0.022 0.004 0.0035649 0.022 0.004 0.0035444 0.022
0.005 0.0035649 0.022 0.005 0.0035444 0.022 0.006 0.0035649 0.022 0.006
0.0035444 0.022 0.007 0.0035649 0.022 0.007 0.0035444 0.022 0.008 0.0035649
0.022 0.008 0.0035444 0.022 0.009 0.0035649 0.022 0.009 0.0035444 0.022
0.01 0.0035649 0.022 0.01 0.0035444 0.022 0.011 0.0035649 0.022 0.011
0.0035444 0.022 0.012 0.0035649 0.022 0.012 0.0035444 0.022 0.013 0.0035649
0.022 0.013 0.0035444 0.022 0.014 0.0035649 0.022 0.014 0.0035444 0.022
0.015 0.0035649 0.022 0.015 0.0035444 0.022 0.016 0.0035649 0.022 0.016
0.0035444 0.022 0.017 0.0035649 0.022 0.017 0.0035444 0.022 0.018 0.0035649
0.022 0.018 0.0035444 0.022 0.019 0.0035649 0.022 0.019 0.0035444 0.022
0.02 0.0035649 0.022 0.02 0.0035444 0.022 0.021 0.0035649 0.022 0.021
0.0035444 0.022 0.022 0.0035649 0.022 0.022 0.0035854 0.022 0.001 0.0035854
0.022 0 0.0035854 0.022 0.002 0.0035854 0.022 0.003 0.0035854 0.022
0.004 0.0035854 0.022 0.005 0.0035854 0.022 0.006 0.0035854 0.022 0.007
0.0035854 0.022 0.008 0.0035854 0.022 0.009 0.0035854 0.022 0.01 0.0035854
0.022 0.011 0.0035854 0.022 0.012 0.0035854 0.022 0.013 0.0035854 0.022
[...]
CELL_DATA 2640
FIELD attributes 16
patchID 1 2640 float
1 1 1 1 1 1 1 1 1 1 1
1 1 1 1 1 1 1 1 1 1
1 1 1 1 1 1 1 1 1 1
1 1 1 1 1 1 1 1 1 1
1 1 1 1 1 1 1 1 1 1
1 1 1 1 1 1 1 1 1 1
1 1 1 1 1 1 1 1 1 1
1 1 1 1 1 1 1 1 1 1
1 1 1 1 1 1 1 1 1 1
1 1 1 1 1 1 1 1 1 1
1 1 1 1 1 1 1 1 1 1
1 1 1 1 1 1 1 1 1 1
1 1 1 1 1 1 1 1 1 1
1 1 1 1 1 1 1 1 1 1
1 1 1 1 1 1 1 1 1 1
1 1 1 1 1 1 1 1 1 1
1 1 1 1 1 1 1 1 1 1
1 1 1 1 1 1 1 1 1 1
1 1 1 1 1 1 1 1 1 1
1 1 1 1 1 1 1 1 1 1
1 1 1 1 1 1 1 1 1 1
1 1 1 1 1 1 1 1 1 1
1 1 1 1 1 1 1 1 1 1
1 1 1 1 1 1 1 1 1 1
1 1 1 1 1 1 1 1 1 1
1 1 1 1 1 1 1 1 1 1
1 1 1 1 1 1 1 1 1 1
1 1 1 1 1 1 1 1 1 1
1 1 1 1 1 1 1 1 1 1
1 1 1 1 1 1 1 1 1 1
1 1 1 1 1 1 1 1 1 1
1 1 1 1 1 1 1 1 1 1
1 1 1 1 1 1 1 1 1 1
1 1 1 1 1 1 1 1 1 1
1 1 1 1 1 1 1 1 1 1
1 1 1 1 1 1 1 1 1 1
1 1 1 1 1 1 1 1 1 1
1 1 1 1 1 1 1 1 1 1
1 1 1 1 1 1 1 1 1 1
1 1 1 1 1 1 1 1 1 1
1 1 1 1 1 1 1 1 1 1
1 1 1 1 1 1 1 1 1 1
1 1 1 1 1 1 1 1 1 1
1 1 1 1 1 1 1 1 1 1
1 1 1 1 1 1 1 1 1 1
1 1 1 1 1 1 1 1 1 1
1 1 1 1 1 1 1 1 1 1
1 1 1 1 1 1 1 1 1 1
1 1 1 1 1 1 1 1 1 1
1 1 1 1 1 1 1 1 1 1
1 1 1 1 1 1 1 1 1 1
1 1 1 1 1 1 1 1 1 1
1 1 1 1 1 1 1 1 1 1
1 1 1 1 1 1 1 1 1 1
1 1 1 1 1 1 1 1 1 1
1 1 1 1 1 1 1 1 1 1
1 1 1 1 1 1 1 1 1 1
1 1 1 1 1 1 1 1 1 1
1 1 1 1 1 1 1 1 1 1
1 1 1 1 1 1 1 1 1 1
1 1 1 1 1 1 1 1 1 1
1 1 1 1 1 1 1 1 1 1
1 1 1 1 1 1 1 1 1 1
1 1 1 1 1 1 1 1 1 1
1 1 1 1 1 1 1 1 1 1
1 1 1 1 1 1 1 1 1 1
1 1 1 1 1 1 1 1 1 1
1 1 1 1 1 1 1 1 1 1
1 1 1 1 1 1 1 1 1 1
1 1 1 1 1 1 1 1 1 1
1 1 1 1 1 1 1 1 1 1
1 1 1 1 1 1 1 1 1 1
1 1 1 1 1 1 1 1 1 1
1 1 1 1 1 1 1 1 1 1
1 1 1 1 1 1 1 1 1 1
1 1 1 1 1 1 1 1 1 1
1 1 1 1 1 1 1 1 1 1
1 1 1 1 1 1 1 1 1 1
1 1 1 1 1 1 1 1 1 1
1 1 1 1 1 1 1 1 1 1
1 1 1 1 1 1 1 1 1 1
1 1 1 1 1 1 1 1 1 1
1 1 1 1 1 1 1 1 1 1
1 1 1 1 1 1 1 1 1 1
1 1 1 1 1 1 1 1 1 1
1 1 1 1 1 1 1 1 1 1
1 1 1 1 1 1 1 1 1 1
1 1 1 1 1 1 1 1 1 1
1 1 1 1 1 1 1 1 1 1
1 1 1 1 1 1 1 1 1 1
1 1 1 1 1 1 1 1 1 1
1 1 1 1 1 1 1 1 1 1
1 1 1 1 1 1 1 1 1 1
1 1 1 1 1 1 1 1 1 1
1 1 1 1 1 1 1 1 1 1
1 1 1 1 1 1 1 1 1 1
1 1 1 1 1 1 1 1 1 1
1 1 1 1 1 1 1 1 1 1
1 1 1 1 1 1 1 1 1 1
1 1 1 1 1 1 1 1 1 1
1 1 1 1 1 1 1 1 1 1
1 1 1 1 1 1 1 1 1 1
1 1 1 1 1 1 1 1 1 1
1 1 1 1 1 1 1 1 1 1
1 1 1 1 1 1 1 1 1 1
1 1 1 1 1 1 1 1 1 1
1 1 1 1 1 1 1 1 1 1
1 1 1 1 1 1 1 1 1 1
1 1 1 1 1 1 1 1 1 1
1 1 1 1 1 1 1 1 1 1
1 1 1 1 1 1 1 1 1 1
1 1 1 1 1 1 1 1 1 1
1 1 1 1 1 1 1 1 1 1
1 1 1 1 1 1 1 1 1 1
1 1 1 1 1 1 1 1 1 1
1 1 1 1 1 1 1 1 1 1
1 1 1 1 1 1 1 1 1 1
1 1 1 1 1 1 1 1 1 1
1 1 1 1 1 1 1 1 1 1
1 1 1 1 1 1 1 1 1 1
1 1 1 1 1 1 1 1 1 1
1 1 1 1 1 1 1 1 1 1
1 1 1 1 1 1 1 1 1 1
1 1 1 1 1 1 1 1 1 1
1 1 1 1 1 1 1 1 1 1
1 1 1 1 1 1 1 1 1 1
1 1 1 1 1 1 1 1 1 1
1 1 1 1 1 1 1 1 1 1
1 1 1 1 1 1 1 1 1 1
1 1 1 1 1 1 1 1 1 1
1 1 1 1 1 1 1 1 1 1
1 1 1 1 1 1 1 1 1 1
1 1 1 1 1 1 1 1 1 1
1 1 1 1 1 1 1 1 1 1
1 1 1 1 1 1 1 1 1 1
1 1 1 1 1 1 1 1 1 1
1 1 1 1 1 1 1 1 1 1
1 1 1 1 1 1 1 1 1 1
1 1 1 1 1 1 1 1 1 1
1 1 1 1 1 1 1 1 1 1
1 1 1 1 1 1 1 1 1 1
1 1 1 1 1 1 1 1 1 1
1 1 1 1 1 1 1 1 1 1
1 1 1 1 1 1 1 1 1 1
1 1 1 1 1 1 1 1 1 1
1 1 1 1 1 1 1 1 1 1
1 1 1 1 1 1 1 1 1 1
1 1 1 1 1 1 1 1 1 1
1 1 1 1 1 1 1 1 1 1
1 1 1 1 1 1 1 1 1 1
1 1 1 1 1 1 1 1 1 1
1 1 1 1 1 1 1 1 1 1
1 1 1 1 1 1 1 1 1 1
1 1 1 1 1 1 1 1 1 1
1 1 1 1 1 1 1 1 1 1
1 1 1 1 1 1 1 1 1 1
1 1 1 1 1 1 1 1 1 1
1 1 1 1 1 1 1 1 1 1
1 1 1 1 1 1 1 1 1 1
1 1 1 1 1 1 1 1 1 1
1 1 1 1 1 1 1 1 1 1
1 1 1 1 1 1 1 1 1 1
1 1 1 1 1 1 1 1 1 1
1 1 1 1 1 1 1 1 1 1
1 1 1 1 1 1 1 1 1 1
1 1 1 1 1 1 1 1 1 1
1 1 1 1 1 1 1 1 1 1
1 1 1 1 1 1 1 1 1 1
1 1 1 1 1 1 1 1 1 1
1 1 1 1 1 1 1 1 1 1
1 1 1 1 1 1 1 1 1 1
1 1 1 1 1 1 1 1 1 1
1 1 1 1 1 1 1 1 1 1
1 1 1 1 1 1 1 1 1 1
1 1 1 1 1 1 1 1 1 1
1 1 1 1 1 1 1 1 1 1
1 1 1 1 1 1 1 1 1 1
1 1 1 1 1 1 1 1 1 1
1 1 1 1 1 1 1 1 1 1
1 1 1 1 1 1 1 1 1 1
1 1 1 1 1 1 1 1 1 1
1 1 1 1 1 1 1 1 1 1
1 1 1 1 1 1 1 1 1 1
1 1 1 1 1 1 1 1 1 1
1 1 1 1 1 1 1 1 1 1
1 1 1 1 1 1 1 1 1 1
1 1 1 1 1 1 1 1 1 1
1 1 1 1 1 1 1 1 1 1
1 1 1 1 1 1 1 1 1 1
1 1 1 1 1 1 1 1 1 1
1 1 1 1 1 1 1 1 1 1
1 1 1 1 1 1 1 1 1 1
1 1 1 1 1 1 1 1 1 1
1 1 1 1 1 1 1 1 1 1
1 1 1 1 1 1 1 1 1 1
1 1 1 1 1 1 1 1 1 1
1 1 1 1 1 1 1 1 1 1
1 1 1 1 1 1 1 1 1 1
1 1 1 1 1 1 1 1 1 1
1 1 1 1 1 1 1 1 1 1
1 1 1 1 1 1 1 1 1 1
1 1 1 1 1 1 1 1 1 1
1 1 1 1 1 1 1 1 1 1
1 1 1 1 1 1 1 1 1 1
1 1 1 1 1 1 1 1 1 1
1 1 1 1 1 1 1 1 1 1
1 1 1 1 1 1 1 1 1 1
1 1 1 1 1 1 1 1 1 1
1 1 1 1 1 1 1 1 1 1
1 1 1 1 1 1 1 1 1 1
1 1 1 1 1 1 1 1 1 1
1 1 1 1 1 1 1 1 1 1
1 1 1 1 1 1 1 1 1 1
1 1 1 1 1 1 1 1 1 1
1 1 1 1 1 1 1 1 1 1
1 1 1 1 1 1 1 1 1 1
1 1 1 1 1 1 1 1 1 1
1 1 1 1 1 1 1 1 1 1
1 1 1 1 1 1 1 1 1 1
1 1 1 1 1 1 1 1 1 1
1 1 1 1 1 1 1 1 1 1
1 1 1 1 1 1 1 1 1 1
1 1 1 1 1 1 1 1 1 1
1 1 1 1 1 1 1 1 1 1
1 1 1 1 1 1 1 1 1 1
1 1 1 1 1 1 1 1 1 1
1 1 1 1 1 1 1 1 1 1
1 1 1 1 1 1 1 1 1 1
1 1 1 1 1 1 1 1 1 1
1 1 1 1 1 1 1 1 1 1
1 1 1 1 1 1 1 1 1 1
1 1 1 1 1 1 1 1 1 1
1 1 1 1 1 1 1 1 1 1
1 1 1 1 1 1 1 1 1 1
1 1 1 1 1 1 1 1 1 1
1 1 1 1 1 1 1 1 1 1
1 1 1 1 1 1 1 1 1 1
1 1 1 1 1 1 1 1 1 1
1 1 1 1 1 1 1 1 1 1
1 1 1 1 1 1 1 1 1 1
1 1 1 1 1 1 1 1 1 1
1 1 1 1 1 1 1 1 1 1
1 1 1 1 1 1 1 1 1 1
1 1 1 1 1 1 1 1 1 1
1 1 1 1 1 1 1 1 1 1
1 1 1 1 1 1 1 1 1 1
1 1 1 1 1 1 1 1 1 1
1 1 1 1 1 1 1 1 1 1
1 1 1 1 1 1 1 1 1 1
1 1 1 1 1 1 1 1 1 1
1 1 1 1 1 1 1 1 1 1
1 1 1 1 1 1 1 1 1 1
1 1 1 1 1 1 1 1 1 1
1 1 1 1 1 1 1 1 1 1
1 1 1 1 1 1 1 1 1 1
1 1 1 1 1 1 1 1 1 1
1 1 1 1 1 1 1 1 1 1
1 1 1 1 1 1 1 1 1 1
1 1 1 1 1 1 1 1 1 1
1 1 1 1 1 1 1 1 1 1
1 1 1 1 1 1 1 1 1 1
1 1 1 1 1 1 1 1 1 1
1 1 1 1 1 1 1 1 1 1
1 1 1 1 1 1 1 1 1 
diffH2Ofuel 1 2640 float
0 0 0 0 0 0 0 0 0 0 0
0 0 0 0 0 0 0 0 0 0
0 0 0 0 0 0 0 0 0 0
0 0 0 0 0 0 0 0 0 0
0 0 0 0 0 0 0 0 0 0
0 0 0 0 0 0 0 0 0 0
0 0 0 0 0 0 0 0 0 0
0 0 0 0 0 0 0 0 0 0
0 0 0 0 0 0 0 0 0 0
0 0 0 0 0 0 0 0 0 0
0 0 0 0 0 0 0 0 0 0
0 0 0 0 0 0 0 0 0 0
0 0 0 0 0 0 0 0 0 0
0 0 0 0 0 0 0 0 0 0
0 0 0 0 0 0 0 0 0 0
0 0 0 0 0 0 0 0 0 0
0 0 0 0 0 0 0 0 0 0
0 0 0 0 0 0 0 0 0 0
0 0 0 0 0 0 0 0 0 0
0 0 0 0 0 0 0 0 0 0
0 0 0 0 0 0 0 0 0 0
0 0 0 0 0 0 0 0 0 0
0 0 0 0 0 0 0 0 0 0
0 0 0 0 0 0 0 0 0 0
0 0 0 0 0 0 0 0 0 0
0 0 0 0 0 0 0 0 0 0
0 0 0 0 0 0 0 0 0 0
0 0 0 0 0 0 0 0 0 0
0 0 0 0 0 0 0 0 0 0
0 0 0 0 0 0 0 0 0 0
0 0 0 0 0 0 0 0 0 0
0 0 0 0 0 0 0 0 0 0
0 0 0 0 0 0 0 0 0 0
0 0 0 0 0 0 0 0 0 0
0 0 0 0 0 0 0 0 0 0
0 0 0 0 0 0 0 0 0 0
0 0 0 0 0 0 0 0 0 0
0 0 0 0 0 0 0 0 0 0
0 0 0 0 0 0 0 0 0 0
0 0 0 0 0 0 0 0 0 0
0 0 0 0 0 0 0 0 0 0
0 0 0 0 0 0 0 0 0 0
0 0 0 0 0 0 0 0 0 0
0 0 0 0 0 0 0 0 0 0
0 0 0 0 0 0 0 0 0 0
0 0 0 0 0 0 0 0 0 0
0 0 0 0 0 0 0 0 0 0
0 0 0 0 0 0 0 0 0 0
0 0 0 0 0 0 0 0 0 0
0 0 0 0 0 0 0 0 0 0
0 0 0 0 0 0 0 0 0 0
0 0 0 0 0 0 0 0 0 0
0 0 0 0 0 0 0 0 0 0
0 0 0 0 0 0 0 0 0 0
0 0 0 0 0 0 0 0 0 0
0 0 0 0 0 0 0 0 0 0
0 0 0 0 0 0 0 0 0 0
0 0 0 0 0 0 0 0 0 0
0 0 0 0 0 0 0 0 0 0
0 0 0 0 0 0 0 0 0 0
0 0 0 0 0 0 0 0 0 0
0 0 0 0 0 0 0 0 0 0
0 0 0 0 0 0 0 0 0 0
0 0 0 0 0 0 0 0 0 0
0 0 0 0 0 0 0 0 0 0
0 0 0 0 0 0 0 0 0 0
0 0 0 0 0 0 0 0 0 0
0 0 0 0 0 0 0 0 0 0
0 0 0 0 0 0 0 0 0 0
0 0 0 0 0 0 0 0 0 0
0 0 0 0 0 0 0 0 0 0
0 0 0 0 0 0 0 0 0 0
0 0 0 0 0 0 0 0 0 0
0 0 0 0 0 0 0 0 0 0
0 0 0 0 0 0 0 0 0 0
0 0 0 0 0 0 0 0 0 0
0 0 0 0 0 0 0 0 0 0
0 0 0 0 0 0 0 0 0 0
0 0 0 0 0 0 0 0 0 0
0 0 0 0 0 0 0 0 0 0
0 0 0 0 0 0 0 0 0 0
0 0 0 0 0 0 0 0 0 0
0 0 0 0 0 0 0 0 0 0
0 0 0 0 0 0 0 0 0 0
0 0 0 0 0 0 0 0 0 0
0 0 0 0 0 0 0 0 0 0
0 0 0 0 0 0 0 0 0 0
0 0 0 0 0 0 0 0 0 0
0 0 0 0 0 0 0 0 0 0
0 0 0 0 0 0 0 0 0 0
0 0 0 0 0 0 0 0 0 0
0 0 0 0 0 0 0 0 0 0
0 0 0 0 0 0 0 0 0 0
0 0 0 0 0 0 0 0 0 0
0 0 0 0 0 0 0 0 0 0
0 0 0 0 0 0 0 0 0 0
0 0 0 0 0 0 0 0 0 0
0 0 0 0 0 0 0 0 0 0
0 0 0 0 0 0 0 0 0 0
0 0 0 0 0 0 0 0 0 0
0 0 0 0 0 0 0 0 0 0
0 0 0 0 0 0 0 0 0 0
0 0 0 0 0 0 0 0 0 0
0 0 0 0 0 0 0 0 0 0
0 0 0 0 0 0 0 0 0 0
0 0 0 0 0 0 0 0 0 0
0 0 0 0 0 0 0 0 0 0
0 0 0 0 0 0 0 0 0 0
0 0 0 0 0 0 0 0 0 0
0 0 0 0 0 0 0 0 0 0
0 0 0 0 0 0 0 0 0 0
0 0 0 0 0 0 0 0 0 0
0 0 0 0 0 0 0 0 0 0
0 0 0 0 0 0 0 0 0 0
0 0 0 0 0 0 0 0 0 0
0 0 0 0 0 0 0 0 0 0
0 0 0 0 0 0 0 0 0 0
0 0 0 0 0 0 0 0 0 0
0 0 0 0 0 0 0 0 0 0
0 0 0 0 0 0 0 0 0 0
0 0 0 0 0 0 0 0 0 0
0 0 0 0 0 0 0 0 0 0
0 0 0 0 0 0 0 0 0 0
0 0 0 0 0 0 0 0 0 0
0 0 0 0 0 0 0 0 0 0
0 0 0 0 0 0 0 0 0 0
0 0 0 0 0 0 0 0 0 0
0 0 0 0 0 0 0 0 0 0
0 0 0 0 0 0 0 0 0 0
0 0 0 0 0 0 0 0 0 0
0 0 0 0 0 0 0 0 0 0
0 0 0 0 0 0 0 0 0 0
0 0 0 0 0 0 0 0 0 0
0 0 0 0 0 0 0 0 0 0
0 0 0 0 0 0 0 0 0 0
0 0 0 0 0 0 0 0 0 0
0 0 0 0 0 0 0 0 0 0
0 0 0 0 0 0 0 0 0 0
0 0 0 0 0 0 0 0 0 0
0 0 0 0 0 0 0 0 0 0
0 0 0 0 0 0 0 0 0 0
0 0 0 0 0 0 0 0 0 0
0 0 0 0 0 0 0 0 0 0
0 0 0 0 0 0 0 0 0 0
0 0 0 0 0 0 0 0 0 0
0 0 0 0 0 0 0 0 0 0
0 0 0 0 0 0 0 0 0 0
0 0 0 0 0 0 0 0 0 0
0 0 0 0 0 0 0 0 0 0
0 0 0 0 0 0 0 0 0 0
0 0 0 0 0 0 0 0 0 0
0 0 0 0 0 0 0 0 0 0
0 0 0 0 0 0 0 0 0 0
0 0 0 0 0 0 0 0 0 0
0 0 0 0 0 0 0 0 0 0
0 0 0 0 0 0 0 0 0 0
0 0 0 0 0 0 0 0 0 0
0 0 0 0 0 0 0 0 0 0
0 0 0 0 0 0 0 0 0 0
0 0 0 0 0 0 0 0 0 0
0 0 0 0 0 0 0 0 0 0
0 0 0 0 0 0 0 0 0 0
0 0 0 0 0 0 0 0 0 0
0 0 0 0 0 0 0 0 0 0
0 0 0 0 0 0 0 0 0 0
0 0 0 0 0 0 0 0 0 0
0 0 0 0 0 0 0 0 0 0
0 0 0 0 0 0 0 0 0 0
0 0 0 0 0 0 0 0 0 0
0 0 0 0 0 0 0 0 0 0
0 0 0 0 0 0 0 0 0 0
0 0 0 0 0 0 0 0 0 0
0 0 0 0 0 0 0 0 0 0
0 0 0 0 0 0 0 0 0 0
0 0 0 0 0 0 0 0 0 0
0 0 0 0 0 0 0 0 0 0
0 0 0 0 0 0 0 0 0 0
0 0 0 0 0 0 0 0 0 0
0 0 0 0 0 0 0 0 0 0
0 0 0 0 0 0 0 0 0 0
0 0 0 0 0 0 0 0 0 0
0 0 0 0 0 0 0 0 0 0
0 0 0 0 0 0 0 0 0 0
0 0 0 0 0 0 0 0 0 0
0 0 0 0 0 0 0 0 0 0
0 0 0 0 0 0 0 0 0 0
0 0 0 0 0 0 0 0 0 0
0 0 0 0 0 0 0 0 0 0
0 0 0 0 0 0 0 0 0 0
0 0 0 0 0 0 0 0 0 0
0 0 0 0 0 0 0 0 0 0
0 0 0 0 0 0 0 0 0 0
0 0 0 0 0 0 0 0 0 0
0 0 0 0 0 0 0 0 0 0
0 0 0 0 0 0 0 0 0 0
0 0 0 0 0 0 0 0 0 0
0 0 0 0 0 0 0 0 0 0
0 0 0 0 0 0 0 0 0 0
0 0 0 0 0 0 0 0 0 0
0 0 0 0 0 0 0 0 0 0
0 0 0 0 0 0 0 0 0 0
0 0 0 0 0 0 0 0 0 0
0 0 0 0 0 0 0 0 0 0
0 0 0 0 0 0 0 0 0 0
0 0 0 0 0 0 0 0 0 0
0 0 0 0 0 0 0 0 0 0
0 0 0 0 0 0 0 0 0 0
0 0 0 0 0 0 0 0 0 0
0 0 0 0 0 0 0 0 0 0
0 0 0 0 0 0 0 0 0 0
0 0 0 0 0 0 0 0 0 0
0 0 0 0 0 0 0 0 0 0
0 0 0 0 0 0 0 0 0 0
0 0 0 0 0 0 0 0 0 0
0 0 0 0 0 0 0 0 0 0
0 0 0 0 0 0 0 0 0 0
0 0 0 0 0 0 0 0 0 0
0 0 0 0 0 0 0 0 0 0
0 0 0 0 0 0 0 0 0 0
0 0 0 0 0 0 0 0 0 0
0 0 0 0 0 0 0 0 0 0
0 0 0 0 0 0 0 0 0 0
0 0 0 0 0 0 0 0 0 0
0 0 0 0 0 0 0 0 0 0
0 0 0 0 0 0 0 0 0 0
0 0 0 0 0 0 0 0 0 0
0 0 0 0 0 0 0 0 0 0
0 0 0 0 0 0 0 0 0 0
0 0 0 0 0 0 0 0 0 0
0 0 0 0 0 0 0 0 0 0
0 0 0 0 0 0 0 0 0 0
0 0 0 0 0 0 0 0 0 0
0 0 0 0 0 0 0 0 0 0
0 0 0 0 0 0 0 0 0 0
0 0 0 0 0 0 0 0 0 0
0 0 0 0 0 0 0 0 0 0
0 0 0 0 0 0 0 0 0 0
0 0 0 0 0 0 0 0 0 0
0 0 0 0 0 0 0 0 0 0
0 0 0 0 0 0 0 0 0 0
0 0 0 0 0 0 0 0 0 0
0 0 0 0 0 0 0 0 0 0
0 0 0 0 0 0 0 0 0 0
0 0 0 0 0 0 0 0 0 0
0 0 0 0 0 0 0 0 0 0
0 0 0 0 0 0 0 0 0 0
0 0 0 0 0 0 0 0 0 0
0 0 0 0 0 0 0 0 0 0
0 0 0 0 0 0 0 0 0 0
0 0 0 0 0 0 0 0 0 0
0 0 0 0 0 0 0 0 0 0
0 0 0 0 0 0 0 0 0 0
0 0 0 0 0 0 0 0 0 0
0 0 0 0 0 0 0 0 0 0
0 0 0 0 0 0 0 0 0 0
0 0 0 0 0 0 0 0 0 0
0 0 0 0 0 0 0 0 0 0
0 0 0 0 0 0 0 0 0 0
0 0 0 0 0 0 0 0 0 0
0 0 0 0 0 0 0 0 0 0
0 0 0 0 0 0 0 0 0 0
0 0 0 0 0 0 0 0 0 0
0 0 0 0 0 0 0 0 0 0
0 0 0 0 0 0 0 0 0 
XCH3OHfuel 1 2640 float
0.833202 0.833394 0.833567 0.833585 0.833461 0.833361 0.833262 0.833163 0.833064 0.832965 0.832868
0.832777 0.832689 0.832608 0.832527 0.832444 0.832364 0.832276 0.832183 0.832078 0.831964
0.831887 0.833418 0.833607 0.833785 0.833804 0.833681 0.833581 0.833481 0.833382 0.833283
0.833184 0.833087 0.832995 0.832907 0.832826 0.832745 0.832663 0.832582 0.832493 0.8324
0.832295 0.832181 0.832104 0.833621 0.833798 0.833984 0.834007 0.833889 0.83379 0.833691
0.833592 0.833493 0.833395 0.833298 0.833207 0.833119 0.833038 0.832957 0.832875 0.832794
0.832705 0.832612 0.832507 0.832393 0.832314 0.833803 0.833963 0.834159 0.834187 0.834079
0.833984 0.833886 0.833789 0.833691 0.833594 0.833499 0.833408 0.83332 0.83324 0.833159
0.833078 0.832997 0.832909 0.832816 0.832711 0.832597 0.832513 0.833964 0.834103 0.834305
0.83434 0.834245 0.834157 0.834063 0.833969 0.833874 0.833779 0.833685 0.833596 0.83351
0.833431 0.83335 0.83327 0.833189 0.833102 0.833009 0.832905 0.83279 0.832699 0.834103
0.83422 0.834423 0.834465 0.834386 0.834306 0.834219 0.83413 0.834038 0.833947 0.833856
0.833769 0.833685 0.833607 0.833528 0.833449 0.833369 0.833282 0.83319 0.833086 0.83297
0.832869 0.834222 0.834319 0.834518 0.834564 0.834501 0.834431 0.834352 0.834269 0.834183
0.834096 0.834009 0.833925 0.833844 0.833767 0.83369 0.833613 0.833534 0.833448 0.833357
0.833255 0.833137 0.833024 0.834324 0.834404 0.834595 0.834642 0.834593 0.834533 0.834463
0.834387 0.834308 0.834226 0.834144 0.834063 0.833985 0.833911 0.833836 0.833761 0.833683
0.833599 0.833509 0.833407 0.833288 0.833163 0.834411 0.834476 0.834657 0.834703 0.834664
0.834614 0.834553 0.834485 0.834412 0.834337 0.83426 0.834184 0.834109 0.834038 0.833966
0.833892 0.833816 0.833734 0.833645 0.833545 0.833424 0.833287 0.834484 0.834537 0.834707
0.834749 0.834718 0.834676 0.834623 0.834563 0.834498 0.834429 0.834358 0.834287 0.834216
0.834148 0.834078 0.834007 0.833933 0.833852 0.833764 0.833665 0.833543 0.833396 0.834546
0.834589 0.834748 0.834784 0.834758 0.834722 0.834677 0.834624 0.834566 0.834504 0.834439
0.834373 0.834306 0.834241 0.834174 0.834105 0.834033 0.833954 0.833867 0.83377 0.833647
0.833489 0.834597 0.834632 0.834781 0.834809 0.834787 0.834756 0.834716 0.83467 0.834619
0.834563 0.834504 0.834443 0.83438 0.834319 0.834254 0.834188 0.834117 0.83404 0.833954
0.833858 0.833734 0.833568 0.834639 0.834667 0.834806 0.834828 0.834808 0.83478 0.834745
0.834705 0.834659 0.834609 0.834556 0.834499 0.83444 0.834381 0.834319 0.834255 0.834186
0.83411 0.834026 0.833931 0.833807 0.833634 0.834674 0.834698 0.834824 0.834841 0.834822
0.834796 0.834766 0.83473 0.834689 0.834645 0.834595 0.834543 0.834487 0.834431 0.834371
0.834308 0.834241 0.834166 0.834083 0.833989 0.833865 0.833688 0.834702 0.834727 0.834838
0.834849 0.834831 0.834807 0.83478 0.834748 0.834712 0.834671 0.834625 0.834576 0.834522
0.834468 0.83441 0.834349 0.834282 0.834209 0.834127 0.834033 0.833909 0.83373 0.834724
0.834753 0.834846 0.834853 0.834836 0.834814 0.83479 0.834761 0.834728 0.834689 0.834646
0.834599 0.834548 0.834494 0.834438 0.834378 0.834313 0.83424 0.834158 0.834065 0.833942
0.833762 0.834741 0.834773 0.834851 0.834855 0.834839 0.834819 0.834796 0.834769 0.834738
0.834702 0.83466 0.834615 0.834565 0.834512 0.834457 0.834398 0.834333 0.834261 0.83418
0.834087 0.833963 0.833784 0.834751 0.834787 0.834853 0.834856 0.83484 0.834822 0.8348
0.834775 0.834744 0.834709 0.834669 0.834624 0.834575 0.834523 0.834468 0.834409 0.834345
0.834273 0.834192 0.834099 0.833976 0.833798 0.834756 0.834795 0.834853 0.834856 0.834841
0.834823 0.834802 0.834777 0.834747 0.834713 0.834673 0.834628 0.834579 0.834528 0.834473
0.834415 0.834351 0.834279 0.834198 0.834105 0.833982 0.833804 0.834757 0.834797 0.834854
0.834857 0.834841 0.834824 0.834803 0.834778 0.834748 0.834714 0.834674 0.83463 0.834581
0.83453 0.834475 0.834417 0.834352 0.834281 0.8342 0.834107 0.833983 0.833806 0.833202
0.833395 0.833568 0.833585 0.83346 0.833362 0.833262 0.833163 0.833064 0.832964 0.832869
0.832778 0.832689 0.832608 0.832525 0.832445 0.832364 0.832276 0.832183 0.832076 0.831964
0.831888 0.833419 0.833607 0.833785 0.833804 0.83368 0.833582 0.833481 0.833382 0.833283
0.833183 0.833087 0.832996 0.832907 0.832826 0.832744 0.832663 0.832582 0.832493 0.8324
0.832293 0.832182 0.832104 0.833621 0.833798 0.833984 0.834007 0.833889 0.833791 0.833691
0.833592 0.833493 0.833394 0.833298 0.833207 0.833119 0.833038 0.832956 0.832874 0.832794
0.832705 0.832612 0.832506 0.832393 0.832314 0.833803 0.833963 0.834159 0.834187 0.834079
0.833984 0.833886 0.833789 0.833691 0.833593 0.833499 0.833408 0.83332 0.83324 0.833159
0.833078 0.832997 0.832909 0.832816 0.83271 0.832597 0.832514 0.833964 0.834103 0.834305
0.83434 0.834245 0.834157 0.834063 0.833969 0.833874 0.833778 0.833685 0.833596 0.83351
0.83343 0.83335 0.833269 0.833189 0.833101 0.833009 0.832904 0.83279 0.832699 0.834103
0.83422 0.834423 0.834465 0.834386 0.834306 0.834219 0.834129 0.834038 0.833946 0.833856
0.833769 0.833685 0.833606 0.833528 0.833448 0.833368 0.833282 0.83319 0.833086 0.83297
0.832869 0.834222 0.834319 0.834518 0.834564 0.834501 0.834431 0.834352 0.834269 0.834183
0.834096 0.834009 0.833925 0.833843 0.833767 0.83369 0.833612 0.833533 0.833448 0.833357
0.833254 0.833137 0.833024 0.834324 0.834404 0.834595 0.834643 0.834593 0.834533 0.834463
0.834387 0.834308 0.834226 0.834143 0.834063 0.833985 0.833911 0.833836 0.83376 0.833683
0.833599 0.833508 0.833407 0.833288 0.833163 0.834411 0.834476 0.834657 0.834703 0.834664
0.834614 0.834553 0.834485 0.834412 0.834337 0.834259 0.834184 0.834109 0.834038 0.833965
0.833892 0.833816 0.833733 0.833644 0.833544 0.833424 0.833287 0.834484 0.834538 0.834708
0.834749 0.834718 0.834676 0.834623 0.834563 0.834498 0.834429 0.834357 0.834286 0.834216
0.834148 0.834078 0.834006 0.833932 0.833852 0.833764 0.833665 0.833543 0.833396 0.834546
0.834589 0.834749 0.834784 0.834758 0.834722 0.834676 0.834624 0.834566 0.834503 0.834438
0.834372 0.834306 0.834241 0.834174 0.834105 0.834032 0.833953 0.833867 0.83377 0.833646
0.833489 0.834597 0.834632 0.834781 0.834809 0.834787 0.834756 0.834716 0.83467 0.834619
0.834563 0.834503 0.834443 0.83438 0.834318 0.834254 0.834187 0.834117 0.834039 0.833954
0.833858 0.833734 0.833568 0.834639 0.834668 0.834806 0.834828 0.834808 0.83478 0.834745
0.834705 0.834659 0.834609 0.834555 0.834499 0.83444 0.834381 0.834319 0.834254 0.834185
0.83411 0.834026 0.833931 0.833806 0.833634 0.834674 0.834698 0.834825 0.834841 0.834822
0.834796 0.834766 0.83473 0.834689 0.834644 0.834595 0.834543 0.834487 0.83443 0.83437
0.834308 0.83424 0.834166 0.834083 0.833989 0.833864 0.833687 0.834703 0.834727 0.834838
0.834849 0.834831 0.834807 0.83478 0.834748 0.834712 0.834671 0.834625 0.834575 0.834522
0.834467 0.834409 0.834348 0.834282 0.834208 0.834126 0.834033 0.833909 0.83373 0.834725
0.834753 0.834847 0.834854 0.834837 0.834814 0.83479 0.834761 0.834727 0.834689 0.834646
0.834599 0.834548 0.834494 0.834438 0.834378 0.834312 0.834239 0.834158 0.834065 0.833941
0.833762 0.834741 0.834774 0.834852 0.834856 0.834839 0.834819 0.834796 0.834769 0.834738
0.834702 0.83466 0.834615 0.834564 0.834512 0.834456 0.834397 0.834332 0.83426 0.834179
0.834086 0.833963 0.833784 0.834751 0.834788 0.834853 0.834856 0.834841 0.834822 0.8348
0.834775 0.834744 0.834709 0.834669 0.834624 0.834574 0.834523 0.834468 0.834409 0.834345
0.834273 0.834192 0.834099 0.833975 0.833797 0.834756 0.834795 0.834854 0.834857 0.834841
0.834823 0.834803 0.834777 0.834747 0.834713 0.834673 0.834628 0.834579 0.834528 0.834473
0.834414 0.83435 0.834279 0.834198 0.834105 0.833981 0.833804 0.834757 0.834797 0.834854
0.834857 0.834842 0.834824 0.834803 0.834778 0.834748 0.834714 0.834674 0.834629 0.834581
0.834529 0.834475 0.834416 0.834352 0.83428 0.834199 0.834107 0.833983 0.833806 0.833202
0.833075 0.832881 0.832815 0.83292 0.832971 0.833201 0.833219 0.833034 0.833258 0.833277
0.833164 0.83333 0.833304 0.833119 0.833326 0.833303 0.83316 0.833332 0.833323 0.833147
0.833311 0.833308 0.833145 0.833323 0.833331 0.83316 0.833302 0.833326 0.833122 0.833305
0.83333 0.833164 0.833276 0.833258 0.833034 0.833219 0.833203 0.832972 0.83292 0.832817
0.832881 0.833076 0.833202 0.833418 0.833289 0.833083 0.833018 0.833128 0.833173 0.833409
0.833425 0.83323 0.833468 0.833485 0.833362 0.833537 0.833511 0.833316 0.833536 0.833511
0.833358 0.833538 0.833529 0.833344 0.83352 0.833517 0.833342 0.833529 0.833538 0.833357
0.833511 0.833536 0.833319 0.833512 0.833537 0.833362 0.833484 0.833468 0.83323 0.833425
0.833411 0.833174 0.833129 0.83302 0.833084 0.833289 0.833419 0.833621 0.833487 0.833263
0.833204 0.833327 0.833353 0.833591 0.833603 0.833395 0.833667 0.833679 0.833531 0.833716
0.83369 0.833484 0.833736 0.833707 0.833526 0.833718 0.833708 0.833512 0.833717 0.833714
0.83351 0.833708 0.833717 0.833526 0.833707 0.833736 0.833487 0.833691 0.833716 0.833531
0.833678 0.833667 0.833395 0.833604 0.833592 0.833354 0.833328 0.833205 0.833263 0.833487
0.833621 0.833803 0.833666 0.833435 0.833391 0.833534 0.83353 0.833746 0.833754 0.833546
0.833873 0.833881 0.833686 0.833867 0.83384 0.833639 0.833943 0.833911 0.833681 0.833868
0.833858 0.833666 0.833921 0.833918 0.833664 0.833858 0.833867 0.83368 0.83391 0.833943