# vtk DataFile Version 2.0
agdlSides
ASCII
DATASET POLYDATA
POINTS 2772 float
0.0035444 0 0 0.0035649 0 0 0.0035649 0 0.001 0.0035444 0
0.001 0.0035649 0 0.002 0.0035444 0 0.002 0.0035649 0 0.003
0.0035444 0 0.003 0.0035649 0 0.004 0.0035444 0 0.004 0.0035649
0 0.005 0.0035444 0 0.005 0.0035649 0 0.006 0.0035444 0
0.006 0.0035649 0 0.007 0.0035444 0 0.007 0.0035649 0 0.008
0.0035444 0 0.008 0.0035649 0 0.009 0.0035444 0 0.009 0.0035649
0 0.01 0.0035444 0 0.01 0.0035649 0 0.011 0.0035444 0
0.011 0.0035649 0 0.012 0.0035444 0 0.012 0.0035649 0 0.013
0.0035444 0 0.013 0.0035649 0 0.014 0.0035444 0 0.014 0.0035649
0 0.015 0.0035444 0 0.015 0.0035649 0 0.016 0.0035444 0
0.016 0.0035649 0 0.017 0.0035444 0 0.017 0.0035649 0 0.018
0.0035444 0 0.018 0.0035649 0 0.019 0.0035444 0 0.019 0.0035649
0 0.02 0.0035444 0 0.02 0.0035649 0 0.021 0.0035444 0
0.021 0.0035649 0 0.022 0.0035444 0 0.022 0.0035854 0 0
0.0035854 0 0.001 0.0035854 0 0.002 0.0035854 0 0.003 0.0035854
0 0.004 0.0035854 0 0.005 0.0035854 0 0.006 0.0035854 0
0.007 0.0035854 0 0.008 0.0035854 0 0.009 0.0035854 0 0.01
0.0035854 0 0.011 0.0035854 0 0.012 0.0035854 0 0.013 0.0035854
0 0.014 0.0035854 0 0.015 0.0035854 0 0.016 0.0035854 0
0.017 0.0035854 0 0.018 0.0035854 0 0.019 0.0035854 0 0.02
0.0035854 0 0.021 0.0035854 0 0.022 0.0036059 0 0 0.0036059
0 0.001 0.0036059 0 0.002 0.0036059 0 0.003 0.0036059 0
0.004 0.0036059 0 0.005 0.0036059 0 0.006 0.0036059 0 0.007
0.0036059 0 0.008 0.0036059 0 0.009 0.0036059 0 0.01 0.0036059
0 0.011 0.0036059 0 0.012 0.0036059 0 0.013 0.0036059 0
0.014 0.0036059 0 0.015 0.0036059 0 0.016 0.0036059 0 0.017
0.0036059 0 0.018 0.0036059 0 0.019 0.0036059 0 0.02 0.0036059
0 0.021 0.0036059 0 0.022 0.0036264 0 0 0.0036264 0
0.001 0.0036264 0 0.002 0.0036264 0 0.003 0.0036264 0 0.004
0.0036264 0 0.005 0.0036264 0 0.006 0.0036264 0 0.007 0.0036264
0 0.008 0.0036264 0 0.009 0.0036264 0 0.01 0.0036264 0
0.011 0.0036264 0 0.012 0.0036264 0 0.013 0.0036264 0 0.014
0.0036264 0 0.015 0.0036264 0 0.016 0.0036264 0 0.017 0.0036264
0 0.018 0.0036264 0 0.019 0.0036264 0 0.02 0.0036264 0
0.021 0.0036264 0 0.022 0.0036469 0 0 0.0036469 0 0.001
0.0036469 0 0.002 0.0036469 0 0.003 0.0036469 0 0.004 0.0036469
0 0.005 0.0036469 0 0.006 0.0036469 0 0.007 0.0036469 0
0.008 0.0036469 0 0.009 0.0036469 0 0.01 0.0036469 0 0.011
0.0036469 0 0.012 0.0036469 0 0.013 0.0036469 0 0.014 0.0036469
0 0.015 0.0036469 0 0.016 0.0036469 0 0.017 0.0036469 0
0.018 0.0036469 0 0.019 0.0036469 0 0.02 0.0036469 0 0.021
0.0036469 0 0.022 0.0036674 0 0 0.0036674 0 0.001 0.0036674
0 0.002 0.0036674 0 0.003 0.0036674 0 0.004 0.0036674 0
0.005 0.0036674 0 0.006 0.0036674 0 0.007 0.0036674 0 0.008
0.0036674 0 0.009 0.0036674 0 0.01 0.0036674 0 0.011 0.0036674
0 0.012 0.0036674 0 0.013 0.0036674 0 0.014 0.0036674 0
0.015 0.0036674 0 0.016 0.0036674 0 0.017 0.0036674 0 0.018
0.0036674 0 0.019 0.0036674 0 0.02 0.0036674 0 0.021 0.0036674
0 0.022 0.0036879 0 0 0.0036879 0 0.001 0.0036879 0
0.002 0.0036879 0 0.003 0.0036879 0 0.004 0.0036879 0 0.005
0.0036879 0 0.006 0.0036879 0 0.007 0.0036879 0 0.008 0.0036879
0 0.009 0.0036879 0 0.01 0.0036879 0 0.011 0.0036879 0
0.012 0.0036879 0 0.013 0.0036879 0 0.014 0.0036879 0 0.015
0.0036879 0 0.016 0.0036879 0 0.017 0.0036879 0 0.018 0.0036879
0 0.019 0.0036879 0 0.02 0.0036879 0 0.021 0.0036879 0
0.022 0.0037084 0 0 0.0037084 0 0.001 0.0037084 0 0.002
0.0037084 0 0.003 0.0037084 0 0.004 0.0037084 0 0.005 0.0037084
0 0.006 0.0037084 0 0.007 0.0037084 0 0.008 0.0037084 0
0.009 0.0037084 0 0.01 0.0037084 0 0.011 0.0037084 0 0.012
0.0037084 0 0.013 0.0037084 0 0.014 0.0037084 0 0.015 0.0037084
0 0.016 0.0037084 0 0.017 0.0037084 0 0.018 0.0037084 0
0.019 0.0037084 0 0.02 0.0037084 0 0.021 0.0037084 0 0.022
0.0037289 0 0 0.0037289 0 0.001 0.0037289 0 0.002 0.0037289
0 0.003 0.0037289 0 0.004 0.0037289 0 0.005 0.0037289 0
0.006 0.0037289 0 0.007 0.0037289 0 0.008 0.0037289 0 0.009
0.0037289 0 0.01 0.0037289 0 0.011 0.0037289 0 0.012 0.0037289
0 0.013 0.0037289 0 0.014 0.0037289 0 0.015 0.0037289 0
0.016 0.0037289 0 0.017 0.0037289 0 0.018 0.0037289 0 0.019
0.0037289 0 0.02 0.0037289 0 0.021 0.0037289 0 0.022 0.0037494
0 0 0.0037494 0 0.001 0.0037494 0 0.002 0.0037494 0
0.003 0.0037494 0 0.004 0.0037494 0 0.005 0.0037494 0 0.006
0.0037494 0 0.007 0.0037494 0 0.008 0.0037494 0 0.009 0.0037494
0 0.01 0.0037494 0 0.011 0.0037494 0 0.012 0.0037494 0
0.013 0.0037494 0 0.014 0.0037494 0 0.015 0.0037494 0 0.016
0.0037494 0 0.017 0.0037494 0 0.018 0.0037494 0 0.019 0.0037494
0 0.02 0.0037494 0 0.021 0.0037494 0 0.022 0.0037699 0
0 0.0037699 0 0.001 0.0037699 0 0.002 0.0037699 0 0.003
0.0037699 0 0.004 0.0037699 0 0.005 0.0037699 0 0.006 0.0037699
0 0.007 0.0037699 0 0.008 0.0037699 0 0.009 0.0037699 0
0.01 0.0037699 0 0.011 0.0037699 0 0.012 0.0037699 0 0.013
0.0037699 0 0.014 0.0037699 0 0.015 0.0037699 0 0.016 0.0037699
0 0.017 0.0037699 0 0.018 0.0037699 0 0.019 0.0037699 0
0.02 0.0037699 0 0.021 0.0037699 0 0.022 0.0037904 0 0
0.0037904 0 0.001 0.0037904 0 0.002 0.0037904 0 0.003 0.0037904
0 0.004 0.0037904 0 0.005 0.0037904 0 0.006 0.0037904 0
0.007 0.0037904 0 0.008 0.0037904 0 0.009 0.0037904 0 0.01
0.0037904 0 0.011 0.0037904 0 0.012 0.0037904 0 0.013 0.0037904
0 0.014 0.0037904 0 0.015 0.0037904 0 0.016 0.0037904 0
0.017 0.0037904 0 0.018 0.0037904 0 0.019 0.0037904 0 0.02
0.0037904 0 0.021 0.0037904 0 0.022 0.0038109 0 0 0.0038109
0 0.001 0.0038109 0 0.002 0.0038109 0 0.003 0.0038109 0
0.004 0.0038109 0 0.005 0.0038109 0 0.006 0.0038109 0 0.007
0.0038109 0 0.008 0.0038109 0 0.009 0.0038109 0 0.01 0.0038109
0 0.011 0.0038109 0 0.012 0.0038109 0 0.013 0.0038109 0
0.014 0.0038109 0 0.015 0.0038109 0 0.016 0.0038109 0 0.017
0.0038109 0 0.018 0.0038109 0 0.019 0.0038109 0 0.02 0.0038109
0 0.021 0.0038109 0 0.022 0.0038314 0 0 0.0038314 0
0.001 0.0038314 0 0.002 0.0038314 0 0.003 0.0038314 0 0.004
0.0038314 0 0.005 0.0038314 0 0.006 0.0038314 0 0.007 0.0038314
0 0.008 0.0038314 0 0.009 0.0038314 0 0.01 0.0038314 0
0.011 0.0038314 0 0.012 0.0038314 0 0.013 0.0038314 0 0.014
0.0038314 0 0.015 0.0038314 0 0.016 0.0038314 0 0.017 0.0038314
0 0.018 0.0038314 0 0.019 0.0038314 0 0.02 0.0038314 0
0.021 0.0038314 0 0.022 0.0038519 0 0 0.0038519 0 0.001
0.0038519 0 0.002 0.0038519 0 0.003 0.0038519 0 0.004 0.0038519
0 0.005 0.0038519 0 0.006 0.0038519 0 0.007 0.0038519 0
0.008 0.0038519 0 0.009 0.0038519 0 0.01 0.0038519 0 0.011
0.0038519 0 0.012 0.0038519 0 0.013 0.0038519 0 0.014 0.0038519
0 0.015 0.0038519 0 0.016 0.0038519 0 0.017 0.0038519 0
0.018 0.0038519 0 0.019 0.0038519 0 0.02 0.0038519 0 0.021
0.0038519 0 0.022 0.0038724 0 0 0.0038724 0 0.001 0.0038724
0 0.002 0.0038724 0 0.003 0.0038724 0 0.004 0.0038724 0
0.005 0.0038724 0 0.006 0.0038724 0 0.007 0.0038724 0 0.008
0.0038724 0 0.009 0.0038724 0 0.01 0.0038724 0 0.011 0.0038724
0 0.012 0.0038724 0 0.013 0.0038724 0 0.014 0.0038724 0
0.015 0.0038724 0 0.016 0.0038724 0 0.017 0.0038724 0 0.018
0.0038724 0 0.019 0.0038724 0 0.02 0.0038724 0 0.021 0.0038724
0 0.022 0.0038929 0 0 0.0038929 0 0.001 0.0038929 0
0.002 0.0038929 0 0.003 0.0038929 0 0.004 0.0038929 0 0.005
0.0038929 0 0.006 0.0038929 0 0.007 0.0038929 0 0.008 0.0038929
0 0.009 0.0038929 0 0.01 0.0038929 0 0.011 0.0038929 0
0.012 0.0038929 0 0.013 0.0038929 0 0.014 0.0038929 0 0.015
0.0038929 0 0.016 0.0038929 0 0.017 0.0038929 0 0.018 0.0038929
0 0.019 0.0038929 0 0.02 0.0038929 0 0.021 0.0038929 0
0.022 0.0039134 0 0 0.0039134 0 0.001 0.0039134 0 0.002
0.0039134 0 0.003 0.0039134 0 0.004 0.0039134 0 0.005 0.0039134
0 0.006 0.0039134 0 0.007 0.0039134 0 0.008 0.0039134 0
0.009 0.0039134 0 0.01 0.0039134 0 0.011 0.0039134 0 0.012
0.0039134 0 0.013 0.0039134 0 0.014 0.0039134 0 0.015 0.0039134
0 0.016 0.0039134 0 0.017 0.0039134 0 0.018 0.0039134 0
0.019 0.0039134 0 0.02 0.0039134 0 0.021 0.0039134 0 0.022
0.0039339 0 0 0.0039339 0 0.001 0.0039339 0 0.002 0.0039339
0 0.003 0.0039339 0 0.004 0.0039339 0 0.005 0.0039339 0
0.006 0.0039339 0 0.007 0.0039339 0 0.008 0.0039339 0 0.009
0.0039339 0 0.01 0.0039339 0 0.011 0.0039339 0 0.012 0.0039339
0 0.013 0.0039339 0 0.014 0.0039339 0 0.015 0.0039339 0
0.016 0.0039339 0 0.017 0.0039339 0 0.018 0.0039339 0 0.019
0.0039339 0 0.02 0.0039339 0 0.021 0.0039339 0 0.022 0.0039544
0 0 0.0039544 0 0.001 0.0039544 0 0.002 0.0039544 0
0.003 0.0039544 0 0.004 0.0039544 0 0.005 0.0039544 0 0.006
0.0039544 0 0.007 0.0039544 0 0.008 0.0039544 0 0.009 0.0039544
0 0.01 0.0039544 0 0.011 0.0039544 0 0.012 0.0039544 0
0.013 0.0039544 0 0.014 0.0039544 0 0.015 0.0039544 0 0.016
0.0039544 0 0.017 0.0039544 0 0.018 0.0039544 0 0.019 0.0039544
0 0.02 0.0039544 0 0.021 0.0039544 0 0.022 0.0035444 0.022
0 0.0035444 0.022 0.001 0.0035649 0.022 0.001 0.0035649 0.022 0
0.0035444 0.022 0.002 0.0035649 0.022 0.002 0.0035444 0.022 0.003 0.0035649
0.022 0.003 0.0035444 0.022 0.004 0.0035649 0.022 0.004 0.0035444 0.022
0.005 0.0035649 0.022 0.005 0.0035444 0.022 0.006 0.0035649 0.022 0.006
0.0035444 0.022 0.007 0.0035649 0.022 0.007 0.0035444 0.022 0.008 0.0035649
0.022 0.008 0.0035444 0.022 0.009 0.0035649 0.022 0.009 0.0035444 0.022
0.01 0.0035649 0.022 0.01 0.0035444 0.022 0.011 0.0035649 0.022 0.011
0.0035444 0.022 0.012 0.0035649 0.022 0.012 0.0035444 0.022 0.013 0.0035649
0.022 0.013 0.0035444 0.022 0.014 0.0035649 0.022 0.014 0.0035444 0.022
0.015 0.0035649 0.022 0.015 0.0035444 0.022 0.016 0.0035649 0.022 0.016
0.0035444 0.022 0.017 0.0035649 0.022 0.017 0.0035444 0.022 0.018 0.0035649
0.022 0.018 0.0035444 0.022 0.019 0.0035649 0.022 0.019 0.0035444 0.022
0.02 0.0035649 0.022 0.02 0.0035444 0.022 0.021 0.0035649 0.022 0.021
0.0035444 0.022 0.022 0.0035649 0.022 0.022 0.0035854 0.022 0.001 0.0035854
0.022 0 0.0035854 0.022 0.002 0.0035854 0.022 0.003 0.0035854 0.022
0.004 0.0035854 0.022 0.005 0.0035854 0.022 0.006 0.0035854 0.022 0.007
0.0035854 0.022 0.008 0.0035854 0.022 0.009 0.0035854 0.022 0.01 0.0035854
0.022 0.011 0.0035854 0.022 0.012 0.0035854 0.022 0.013 0.0035854 0.022
[...]
CELL_DATA 2640
FIELD attributes 16
patchID 1 2640 float
1 1 1 1 1 1 1 1 1 1 1
1 1 1 1 1 1 1 1 1 1
1 1 1 1 1 1 1 1 1 1
1 1 1 1 1 1 1 1 1 1
1 1 1 1 1 1 1 1 1 1
1 1 1 1 1 1 1 1 1 1
1 1 1 1 1 1 1 1 1 1
1 1 1 1 1 1 1 1 1 1
1 1 1 1 1 1 1 1 1 1
1 1 1 1 1 1 1 1 1 1
1 1 1 1 1 1 1 1 1 1
1 1 1 1 1 1 1 1 1 1
1 1 1 1 1 1 1 1 1 1
1 1 1 1 1 1 1 1 1 1
1 1 1 1 1 1 1 1 1 1
1 1 1 1 1 1 1 1 1 1
1 1 1 1 1 1 1 1 1 1
1 1 1 1 1 1 1 1 1 1
1 1 1 1 1 1 1 1 1 1
1 1 1 1 1 1 1 1 1 1
1 1 1 1 1 1 1 1 1 1
1 1 1 1 1 1 1 1 1 1
1 1 1 1 1 1 1 1 1 1
1 1 1 1 1 1 1 1 1 1
1 1 1 1 1 1 1 1 1 1
1 1 1 1 1 1 1 1 1 1
1 1 1 1 1 1 1 1 1 1
1 1 1 1 1 1 1 1 1 1
1 1 1 1 1 1 1 1 1 1
1 1 1 1 1 1 1 1 1 1
1 1 1 1 1 1 1 1 1 1
1 1 1 1 1 1 1 1 1 1
1 1 1 1 1 1 1 1 1 1
1 1 1 1 1 1 1 1 1 1
1 1 1 1 1 1 1 1 1 1
1 1 1 1 1 1 1 1 1 1
1 1 1 1 1 1 1 1 1 1
1 1 1 1 1 1 1 1 1 1
1 1 1 1 1 1 1 1 1 1
1 1 1 1 1 1 1 1 1 1
1 1 1 1 1 1 1 1 1 1
1 1 1 1 1 1 1 1 1 1
1 1 1 1 1 1 1 1 1 1
1 1 1 1 1 1 1 1 1 1
1 1 1 1 1 1 1 1 1 1
1 1 1 1 1 1 1 1 1 1
1 1 1 1 1 1 1 1 1 1
1 1 1 1 1 1 1 1 1 1
1 1 1 1 1 1 1 1 1 1
1 1 1 1 1 1 1 1 1 1
1 1 1 1 1 1 1 1 1 1
1 1 1 1 1 1 1 1 1 1
1 1 1 1 1 1 1 1 1 1
1 1 1 1 1 1 1 1 1 1
1 1 1 1 1 1 1 1 1 1
1 1 1 1 1 1 1 1 1 1
1 1 1 1 1 1 1 1 1 1
1 1 1 1 1 1 1 1 1 1
1 1 1 1 1 1 1 1 1 1
1 1 1 1 1 1 1 1 1 1
1 1 1 1 1 1 1 1 1 1
1 1 1 1 1 1 1 1 1 1
1 1 1 1 1 1 1 1 1 1
1 1 1 1 1 1 1 1 1 1
1 1 1 1 1 1 1 1 1 1
1 1 1 1 1 1 1 1 1 1
1 1 1 1 1 1 1 1 1 1
1 1 1 1 1 1 1 1 1 1
1 1 1 1 1 1 1 1 1 1
1 1 1 1 1 1 1 1 1 1
1 1 1 1 1 1 1 1 1 1
1 1 1 1 1 1 1 1 1 1
1 1 1 1 1 1 1 1 1 1
1 1 1 1 1 1 1 1 1 1
1 1 1 1 1 1 1 1 1 1
1 1 1 1 1 1 1 1 1 1
1 1 1 1 1 1 1 1 1 1
1 1 1 1 1 1 1 1 1 1
1 1 1 1 1 1 1 1 1 1
1 1 1 1 1 1 1 1 1 1
1 1 1 1 1 1 1 1 1 1
1 1 1 1 1 1 1 1 1 1
1 1 1 1 1 1 1 1 1 1
1 1 1 1 1 1 1 1 1 1
1 1 1 1 1 1 1 1 1 1
1 1 1 1 1 1 1 1 1 1
1 1 1 1 1 1 1 1 1 1
1 1 1 1 1 1 1 1 1 1
1 1 1 1 1 1 1 1 1 1
1 1 1 1 1 1 1 1 1 1
1 1 1 1 1 1 1 1 1 1
1 1 1 1 1 1 1 1 1 1
1 1 1 1 1 1 1 1 1 1
1 1 1 1 1 1 1 1 1 1
1 1 1 1 1 1 1 1 1 1
1 1 1 1 1 1 1 1 1 1
1 1 1 1 1 1 1 1 1 1
1 1 1 1 1 1 1 1 1 1
1 1 1 1 1 1 1 1 1 1
1 1 1 1 1 1 1 1 1 1
1 1 1 1 1 1 1 1 1 1
1 1 1 1 1 1 1 1 1 1
1 1 1 1 1 1 1 1 1 1
1 1 1 1 1 1 1 1 1 1
1 1 1 1 1 1 1 1 1 1
1 1 1 1 1 1 1 1 1 1
1 1 1 1 1 1 1 1 1 1
1 1 1 1 1 1 1 1 1 1
1 1 1 1 1 1 1 1 1 1
1 1 1 1 1 1 1 1 1 1
1 1 1 1 1 1 1 1 1 1
1 1 1 1 1 1 1 1 1 1
1 1 1 1 1 1 1 1 1 1
1 1 1 1 1 1 1 1 1 1
1 1 1 1 1 1 1 1 1 1
1 1 1 1 1 1 1 1 1 1
1 1 1 1 1 1 1 1 1 1
1 1 1 1 1 1 1 1 1 1
1 1 1 1 1 1 1 1 1 1
1 1 1 1 1 1 1 1 1 1
1 1 1 1 1 1 1 1 1 1
1 1 1 1 1 1 1 1 1 1
1 1 1 1 1 1 1 1 1 1
1 1 1 1 1 1 1 1 1 1
1 1 1 1 1 1 1 1 1 1
1 1 1 1 1 1 1 1 1 1
1 1 1 1 1 1 1 1 1 1
1 1 1 1 1 1 1 1 1 1
1 1 1 1 1 1 1 1 1 1
1 1 1 1 1 1 1 1 1 1
1 1 1 1 1 1 1 1 1 1
1 1 1 1 1 1 1 1 1 1
1 1 1 1 1 1 1 1 1 1
1 1 1 1 1 1 1 1 1 1
1 1 1 1 1 1 1 1 1 1
1 1 1 1 1 1 1 1 1 1
1 1 1 1 1 1 1 1 1 1
1 1 1 1 1 1 1 1 1 1
1 1 1 1 1 1 1 1 1 1
1 1 1 1 1 1 1 1 1 1
1 1 1 1 1 1 1 1 1 1
1 1 1 1 1 1 1 1 1 1
1 1 1 1 1 1 1 1 1 1
1 1 1 1 1 1 1 1 1 1
1 1 1 1 1 1 1 1 1 1
1 1 1 1 1 1 1 1 1 1
1 1 1 1 1 1 1 1 1 1
1 1 1 1 1 1 1 1 1 1
1 1 1 1 1 1 1 1 1 1
1 1 1 1 1 1 1 1 1 1
1 1 1 1 1 1 1 1 1 1
1 1 1 1 1 1 1 1 1 1
1 1 1 1 1 1 1 1 1 1
1 1 1 1 1 1 1 1 1 1
1 1 1 1 1 1 1 1 1 1
1 1 1 1 1 1 1 1 1 1
1 1 1 1 1 1 1 1 1 1
1 1 1 1 1 1 1 1 1 1
1 1 1 1 1 1 1 1 1 1
1 1 1 1 1 1 1 1 1 1
1 1 1 1 1 1 1 1 1 1
1 1 1 1 1 1 1 1 1 1
1 1 1 1 1 1 1 1 1 1
1 1 1 1 1 1 1 1 1 1
1 1 1 1 1 1 1 1 1 1
1 1 1 1 1 1 1 1 1 1
1 1 1 1 1 1 1 1 1 1
1 1 1 1 1 1 1 1 1 1
1 1 1 1 1 1 1 1 1 1
1 1 1 1 1 1 1 1 1 1
1 1 1 1 1 1 1 1 1 1
1 1 1 1 1 1 1 1 1 1
1 1 1 1 1 1 1 1 1 1
1 1 1 1 1 1 1 1 1 1
1 1 1 1 1 1 1 1 1 1
1 1 1 1 1 1 1 1 1 1
1 1 1 1 1 1 1 1 1 1
1 1 1 1 1 1 1 1 1 1
1 1 1 1 1 1 1 1 1 1
1 1 1 1 1 1 1 1 1 1
1 1 1 1 1 1 1 1 1 1
1 1 1 1 1 1 1 1 1 1
1 1 1 1 1 1 1 1 1 1
1 1 1 1 1 1 1 1 1 1
1 1 1 1 1 1 1 1 1 1
1 1 1 1 1 1 1 1 1 1
1 1 1 1 1 1 1 1 1 1
1 1 1 1 1 1 1 1 1 1
1 1 1 1 1 1 1 1 1 1
1 1 1 1 1 1 1 1 1 1
1 1 1 1 1 1 1 1 1 1
1 1 1 1 1 1 1 1 1 1
1 1 1 1 1 1 1 1 1 1
1 1 1 1 1 1 1 1 1 1
1 1 1 1 1 1 1 1 1 1
1 1 1 1 1 1 1 1 1 1
1 1 1 1 1 1 1 1 1 1
1 1 1 1 1 1 1 1 1 1
1 1 1 1 1 1 1 1 1 1
1 1 1 1 1 1 1 1 1 1
1 1 1 1 1 1 1 1 1 1
1 1 1 1 1 1 1 1 1 1
1 1 1 1 1 1 1 1 1 1
1 1 1 1 1 1 1 1 1 1
1 1 1 1 1 1 1 1 1 1
1 1 1 1 1 1 1 1 1 1
1 1 1 1 1 1 1 1 1 1
1 1 1 1 1 1 1 1 1 1
1 1 1 1 1 1 1 1 1 1
1 1 1 1 1 1 1 1 1 1
1 1 1 1 1 1 1 1 1 1
1 1 1 1 1 1 1 1 1 1
1 1 1 1 1 1 1 1 1 1
1 1 1 1 1 1 1 1 1 1
1 1 1 1 1 1 1 1 1 1
1 1 1 1 1 1 1 1 1 1
1 1 1 1 1 1 1 1 1 1
1 1 1 1 1 1 1 1 1 1
1 1 1 1 1 1 1 1 1 1
1 1 1 1 1 1 1 1 1 1
1 1 1 1 1 1 1 1 1 1
1 1 1 1 1 1 1 1 1 1
1 1 1 1 1 1 1 1 1 1
1 1 1 1 1 1 1 1 1 1
1 1 1 1 1 1 1 1 1 1
1 1 1 1 1 1 1 1 1 1
1 1 1 1 1 1 1 1 1 1
1 1 1 1 1 1 1 1 1 1
1 1 1 1 1 1 1 1 1 1
1 1 1 1 1 1 1 1 1 1
1 1 1 1 1 1 1 1 1 1
1 1 1 1 1 1 1 1 1 1
1 1 1 1 1 1 1 1 1 1
1 1 1 1 1 1 1 1 1 1
1 1 1 1 1 1 1 1 1 1
1 1 1 1 1 1 1 1 1 1
1 1 1 1 1 1 1 1 1 1
1 1 1 1 1 1 1 1 1 1
1 1 1 1 1 1 1 1 1 1
1 1 1 1 1 1 1 1 1 1
1 1 1 1 1 1 1 1 1 1
1 1 1 1 1 1 1 1 1 1
1 1 1 1 1 1 1 1 1 1
1 1 1 1 1 1 1 1 1 1
1 1 1 1 1 1 1 1 1 1
1 1 1 1 1 1 1 1 1 1
1 1 1 1 1 1 1 1 1 1
1 1 1 1 1 1 1 1 1 1
1 1 1 1 1 1 1 1 1 1
1 1 1 1 1 1 1 1 1 1
1 1 1 1 1 1 1 1 1 1
1 1 1 1 1 1 1 1 1 1
1 1 1 1 1 1 1 1 1 1
1 1 1 1 1 1 1 1 1 1
1 1 1 1 1 1 1 1 1 1
1 1 1 1 1 1 1 1 1 1
1 1 1 1 1 1 1 1 1 1
1 1 1 1 1 1 1 1 1 1
1 1 1 1 1 1 1 1 1 1
1 1 1 1 1 1 1 1 1 1
1 1 1 1 1 1 1 1 1 1
1 1 1 1 1 1 1 1 1 1
1 1 1 1 1 1 1 1 1 1
1 1 1 1 1 1 1 1 1 
diffH2Ofuel 1 2640 float
0 0 0 0 0 0 0 0 0 0 0
0 0 0 0 0 0 0 0 0 0
0 0 0 0 0 0 0 0 0 0
0 0 0 0 0 0 0 0 0 0
0 0 0 0 0 0 0 0 0 0
0 0 0 0 0 0 0 0 0 0
0 0 0 0 0 0 0 0 0 0
0 0 0 0 0 0 0 0 0 0
0 0 0 0 0 0 0 0 0 0
0 0 0 0 0 0 0 0 0 0
0 0 0 0 0 0 0 0 0 0
0 0 0 0 0 0 0 0 0 0
0 0 0 0 0 0 0 0 0 0
0 0 0 0 0 0 0 0 0 0
0 0 0 0 0 0 0 0 0 0
0 0 0 0 0 0 0 0 0 0
0 0 0 0 0 0 0 0 0 0
0 0 0 0 0 0 0 0 0 0
0 0 0 0 0 0 0 0 0 0
0 0 0 0 0 0 0 0 0 0
0 0 0 0 0 0 0 0 0 0
0 0 0 0 0 0 0 0 0 0
0 0 0 0 0 0 0 0 0 0
0 0 0 0 0 0 0 0 0 0
0 0 0 0 0 0 0 0 0 0
0 0 0 0 0 0 0 0 0 0
0 0 0 0 0 0 0 0 0 0
0 0 0 0 0 0 0 0 0 0
0 0 0 0 0 0 0 0 0 0
0 0 0 0 0 0 0 0 0 0
0 0 0 0 0 0 0 0 0 0
0 0 0 0 0 0 0 0 0 0
0 0 0 0 0 0 0 0 0 0
0 0 0 0 0 0 0 0 0 0
0 0 0 0 0 0 0 0 0 0
0 0 0 0 0 0 0 0 0 0
0 0 0 0 0 0 0 0 0 0
0 0 0 0 0 0 0 0 0 0
0 0 0 0 0 0 0 0 0 0
0 0 0 0 0 0 0 0 0 0
0 0 0 0 0 0 0 0 0 0
0 0 0 0 0 0 0 0 0 0
0 0 0 0 0 0 0 0 0 0
0 0 0 0 0 0 0 0 0 0
0 0 0 0 0 0 0 0 0 0
0 0 0 0 0 0 0 0 0 0
0 0 0 0 0 0 0 0 0 0
0 0 0 0 0 0 0 0 0 0
0 0 0 0 0 0 0 0 0 0
0 0 0 0 0 0 0 0 0 0
0 0 0 0 0 0 0 0 0 0
0 0 0 0 0 0 0 0 0 0
0 0 0 0 0 0 0 0 0 0
0 0 0 0 0 0 0 0 0 0
0 0 0 0 0 0 0 0 0 0
0 0 0 0 0 0 0 0 0 0
0 0 0 0 0 0 0 0 0 0
0 0 0 0 0 0 0 0 0 0
0 0 0 0 0 0 0 0 0 0
0 0 0 0 0 0 0 0 0 0
0 0 0 0 0 0 0 0 0 0
0 0 0 0 0 0 0 0 0 0
0 0 0 0 0 0 0 0 0 0
0 0 0 0 0 0 0 0 0 0
0 0 0 0 0 0 0 0 0 0
0 0 0 0 0 0 0 0 0 0
0 0 0 0 0 0 0 0 0 0
0 0 0 0 0 0 0 0 0 0
0 0 0 0 0 0 0 0 0 0
0 0 0 0 0 0 0 0 0 0
0 0 0 0 0 0 0 0 0 0
0 0 0 0 0 0 0 0 0 0
0 0 0 0 0 0 0 0 0 0
0 0 0 0 0 0 0 0 0 0
0 0 0 0 0 0 0 0 0 0
0 0 0 0 0 0 0 0 0 0
0 0 0 0 0 0 0 0 0 0
0 0 0 0 0 0 0 0 0 0
0 0 0 0 0 0 0 0 0 0
0 0 0 0 0 0 0 0 0 0
0 0 0 0 0 0 0 0 0 0
0 0 0 0 0 0 0 0 0 0
0 0 0 0 0 0 0 0 0 0
0 0 0 0 0 0 0 0 0 0
0 0 0 0 0 0 0 0 0 0
0 0 0 0 0 0 0 0 0 0
0 0 0 0 0 0 0 0 0 0
0 0 0 0 0 0 0 0 0 0
0 0 0 0 0 0 0 0 0 0
0 0 0 0 0 0 0 0 0 0
0 0 0 0 0 0 0 0 0 0
0 0 0 0 0 0 0 0 0 0
0 0 0 0 0 0 0 0 0 0
0 0 0 0 0 0 0 0 0 0
0 0 0 0 0 0 0 0 0 0
0 0 0 0 0 0 0 0 0 0
0 0 0 0 0 0 0 0 0 0
0 0 0 0 0 0 0 0 0 0
0 0 0 0 0 0 0 0 0 0
0 0 0 0 0 0 0 0 0 0
0 0 0 0 0 0 0 0 0 0
0 0 0 0 0 0 0 0 0 0
0 0 0 0 0 0 0 0 0 0
0 0 0 0 0 0 0 0 0 0
0 0 0 0 0 0 0 0 0 0
0 0 0 0 0 0 0 0 0 0
0 0 0 0 0 0 0 0 0 0
0 0 0 0 0 0 0 0 0 0
0 0 0 0 0 0 0 0 0 0
0 0 0 0 0 0 0 0 0 0
0 0 0 0 0 0 0 0 0 0
0 0 0 0 0 0 0 0 0 0
0 0 0 0 0 0 0 0 0 0
0 0 0 0 0 0 0 0 0 0
0 0 0 0 0 0 0 0 0 0
0 0 0 0 0 0 0 0 0 0
0 0 0 0 0 0 0 0 0 0
0 0 0 0 0 0 0 0 0 0
0 0 0 0 0 0 0 0 0 0
0 0 0 0 0 0 0 0 0 0
0 0 0 0 0 0 0 0 0 0
0 0 0 0 0 0 0 0 0 0
0 0 0 0 0 0 0 0 0 0
0 0 0 0 0 0 0 0 0 0
0 0 0 0 0 0 0 0 0 0
0 0 0 0 0 0 0 0 0 0
0 0 0 0 0 0 0 0 0 0
0 0 0 0 0 0 0 0 0 0
0 0 0 0 0 0 0 0 0 0
0 0 0 0 0 0 0 0 0 0
0 0 0 0 0 0 0 0 0 0
0 0 0 0 0 0 0 0 0 0
0 0 0 0 0 0 0 0 0 0
0 0 0 0 0 0 0 0 0 0
0 0 0 0 0 0 0 0 0 0
0 0 0 0 0 0 0 0 0 0
0 0 0 0 0 0 0 0 0 0
0 0 0 0 0 0 0 0 0 0
0 0 0 0 0 0 0 0 0 0
0 0 0 0 0 0 0 0 0 0
0 0 0 0 0 0 0 0 0 0
0 0 0 0 0 0 0 0 0 0
0 0 0 0 0 0 0 0 0 0
0 0 0 0 0 0 0 0 0 0
0 0 0 0 0 0 0 0 0 0
0 0 0 0 0 0 0 0 0 0
0 0 0 0 0 0 0 0 0 0
0 0 0 0 0 0 0 0 0 0
0 0 0 0 0 0 0 0 0 0
0 0 0 0 0 0 0 0 0 0
0 0 0 0 0 0 0 0 0 0
0 0 0 0 0 0 0 0 0 0
0 0 0 0 0 0 0 0 0 0
0 0 0 0 0 0 0 0 0 0
0 0 0 0 0 0 0 0 0 0
0 0 0 0 0 0 0 0 0 0
0 0 0 0 0 0 0 0 0 0
0 0 0 0 0 0 0 0 0 0
0 0 0 0 0 0 0 0 0 0
0 0 0 0 0 0 0 0 0 0
0 0 0 0 0 0 0 0 0 0
0 0 0 0 0 0 0 0 0 0
0 0 0 0 0 0 0 0 0 0
0 0 0 0 0 0 0 0 0 0
0 0 0 0 0 0 0 0 0 0
0 0 0 0 0 0 0 0 0 0
0 0 0 0 0 0 0 0 0 0
0 0 0 0 0 0 0 0 0 0
0 0 0 0 0 0 0 0 0 0
0 0 0 0 0 0 0 0 0 0
0 0 0 0 0 0 0 0 0 0
0 0 0 0 0 0 0 0 0 0
0 0 0 0 0 0 0 0 0 0
0 0 0 0 0 0 0 0 0 0
0 0 0 0 0 0 0 0 0 0
0 0 0 0 0 0 0 0 0 0
0 0 0 0 0 0 0 0 0 0
0 0 0 0 0 0 0 0 0 0
0 0 0 0 0 0 0 0 0 0
0 0 0 0 0 0 0 0 0 0
0 0 0 0 0 0 0 0 0 0
0 0 0 0 0 0 0 0 0 0
0 0 0 0 0 0 0 0 0 0
0 0 0 0 0 0 0 0 0 0
0 0 0 0 0 0 0 0 0 0
0 0 0 0 0 0 0 0 0 0
0 0 0 0 0 0 0 0 0 0
0 0 0 0 0 0 0 0 0 0
0 0 0 0 0 0 0 0 0 0
0 0 0 0 0 0 0 0 0 0
0 0 0 0 0 0 0 0 0 0
0 0 0 0 0 0 0 0 0 0
0 0 0 0 0 0 0 0 0 0
0 0 0 0 0 0 0 0 0 0
0 0 0 0 0 0 0 0 0 0
0 0 0 0 0 0 0 0 0 0
0 0 0 0 0 0 0 0 0 0
0 0 0 0 0 0 0 0 0 0
0 0 0 0 0 0 0 0 0 0
0 0 0 0 0 0 0 0 0 0
0 0 0 0 0 0 0 0 0 0
0 0 0 0 0 0 0 0 0 0
0 0 0 0 0 0 0 0 0 0
0 0 0 0 0 0 0 0 0 0
0 0 0 0 0 0 0 0 0 0
0 0 0 0 0 0 0 0 0 0
0 0 0 0 0 0 0 0 0 0
0 0 0 0 0 0 0 0 0 0
0 0 0 0 0 0 0 0 0 0
0 0 0 0 0 0 0 0 0 0
0 0 0 0 0 0 0 0 0 0
0 0 0 0 0 0 0 0 0 0
0 0 0 0 0 0 0 0 0 0
0 0 0 0 0 0 0 0 0 0
0 0 0 0 0 0 0 0 0 0
0 0 0 0 0 0 0 0 0 0
0 0 0 0 0 0 0 0 0 0
0 0 0 0 0 0 0 0 0 0
0 0 0 0 0 0 0 0 0 0
0 0 0 0 0 0 0 0 0 0
0 0 0 0 0 0 0 0 0 0
0 0 0 0 0 0 0 0 0 0
0 0 0 0 0 0 0 0 0 0
0 0 0 0 0 0 0 0 0 0
0 0 0 0 0 0 0 0 0 0
0 0 0 0 0 0 0 0 0 0
0 0 0 0 0 0 0 0 0 0
0 0 0 0 0 0 0 0 0 0
0 0 0 0 0 0 0 0 0 0
0 0 0 0 0 0 0 0 0 0
0 0 0 0 0 0 0 0 0 0
0 0 0 0 0 0 0 0 0 0
0 0 0 0 0 0 0 0 0 0
0 0 0 0 0 0 0 0 0 0
0 0 0 0 0 0 0 0 0 0
0 0 0 0 0 0 0 0 0 0
0 0 0 0 0 0 0 0 0 0
0 0 0 0 0 0 0 0 0 0
0 0 0 0 0 0 0 0 0 0
0 0 0 0 0 0 0 0 0 0
0 0 0 0 0 0 0 0 0 0
0 0 0 0 0 0 0 0 0 0
0 0 0 0 0 0 0 0 0 0
0 0 0 0 0 0 0 0 0 0
0 0 0 0 0 0 0 0 0 0
0 0 0 0 0 0 0 0 0 0
0 0 0 0 0 0 0 0 0 0
0 0 0 0 0 0 0 0 0 0
0 0 0 0 0 0 0 0 0 0
0 0 0 0 0 0 0 0 0 0
0 0 0 0 0 0 0 0 0 0
0 0 0 0 0 0 0 0 0 0
0 0 0 0 0 0 0 0 0 0
0 0 0 0 0 0 0 0 0 0
0 0 0 0 0 0 0 0 0 0
0 0 0 0 0 0 0 0 0 0
0 0 0 0 0 0 0 0 0 0
0 0 0 0 0 0 0 0 0 0
0 0 0 0 0 0 0 0 0 0
0 0 0 0 0 0 0 0 0 0
0 0 0 0 0 0 0 0 0 0
0 0 0 0 0 0 0 0 0 0
0 0 0 0 0 0 0 0 0 0
0 0 0 0 0 0 0 0 0 
XCH3OHfuel 1 2640 float
0.832902 0.833196 0.833015 0.832743 0.832467 0.832185 0.831906 0.831627 0.831355 0.831095 0.830846
0.830618 0.830404 0.830203 0.830014 0.829831 0.829661 0.829492 0.829307 0.829086 0.828743
0.828176 0.832955 0.83325 0.833069 0.832797 0.83252 0.832239 0.831959 0.83168 0.831407
0.831148 0.830898 0.83067 0.830455 0.830254 0.830065 0.829882 0.829713 0.829543 0.829358
0.829137 0.828794 0.828227 0.833006 0.833302 0.833121 0.832849 0.832572 0.83229 0.83201
0.83173 0.831458 0.831198 0.830948 0.83072 0.830505 0.830303 0.830114 0.829932 0.829762
0.829592 0.829407 0.829186 0.828843 0.828276 0.833055 0.833353 0.833171 0.832898 0.832621
0.83234 0.832059 0.831779 0.831506 0.831246 0.830997 0.830767 0.830552 0.830351 0.830161
0.829979 0.829808 0.829638 0.829454 0.829233 0.828891 0.828323 0.8331 0.8334 0.833219
0.832946 0.832668 0.832387 0.832105 0.831825 0.831552 0.831291 0.831042 0.830812 0.830597
0.830395 0.830206 0.830023 0.829853 0.829683 0.829498 0.829277 0.828935 0.828367 0.833143
0.833445 0.833263 0.83299 0.832712 0.832431 0.832149 0.831869 0.831595 0.831334 0.831085
0.830855 0.830639 0.830437 0.830247 0.830065 0.829894 0.829724 0.829539 0.829318 0.828977
0.828408 0.833181 0.833487 0.833305 0.833031 0.832753 0.832472 0.83219 0.831909 0.831635
0.831374 0.831125 0.830894 0.830678 0.830476 0.830286 0.830104 0.829933 0.829762 0.829578
0.829357 0.829016 0.828447 0.833217 0.833525 0.833343 0.833069 0.83279 0.83251 0.832227
0.831946 0.831672 0.831411 0.831161 0.83093 0.830715 0.830512 0.830322 0.83014 0.829968
0.829798 0.829613 0.829393 0.829053 0.828483 0.833248 0.83356 0.833378 0.833103 0.832825
0.832544 0.832261 0.83198 0.831706 0.831444 0.831195 0.830964 0.830748 0.830545 0.830355
0.830173 0.830001 0.829831 0.829646 0.829425 0.829086 0.828516 0.833277 0.833591 0.833409
0.833135 0.832856 0.832575 0.832292 0.832011 0.831737 0.831475 0.831225 0.830994 0.830778
0.830575 0.830385 0.830203 0.830031 0.829861 0.829676 0.829455 0.829116 0.828545 0.833301
0.833618 0.833437 0.833162 0.832883 0.832602 0.832319 0.832038 0.831764 0.831502 0.831252
0.831021 0.830805 0.830602 0.830412 0.83023 0.830058 0.829887 0.829702 0.829482 0.829142
0.828572 0.833323 0.833641 0.833461 0.833186 0.832907 0.832626 0.832343 0.832061 0.831787
0.831525 0.831276 0.831044 0.830828 0.830626 0.830436 0.830253 0.830082 0.829911 0.829726
0.829505 0.829166 0.828595 0.833341 0.833661 0.833481 0.833206 0.832927 0.832646 0.832363
0.832081 0.831807 0.831546 0.831297 0.831065 0.830849 0.830646 0.830456 0.830274 0.830102
0.829932 0.829747 0.829526 0.829186 0.828615 0.833356 0.833678 0.833498 0.833223 0.832944
0.832663 0.83238 0.832098 0.831824 0.831563 0.831314 0.831082 0.830866 0.830664 0.830474
0.830292 0.83012 0.829949 0.829764 0.829543 0.829204 0.828633 0.833368 0.833691 0.833512
0.833237 0.832958 0.832677 0.832393 0.832112 0.831838 0.831577 0.831328 0.831096 0.830881
0.830678 0.830488 0.830307 0.830135 0.829964 0.829779 0.829558 0.829218 0.828647 0.833378
0.833701 0.833523 0.833248 0.832968 0.832687 0.832404 0.832123 0.831849 0.831588 0.831339
0.831108 0.830892 0.83069 0.8305 0.830319 0.830147 0.829976 0.829791 0.82957 0.829229
0.828658 0.833385 0.833708 0.83353 0.833256 0.832976 0.832695 0.832412 0.832131 0.831857
0.831596 0.831348 0.831117 0.830901 0.830699 0.830509 0.830328 0.830156 0.829986 0.8298
0.829579 0.829238 0.828667 0.833391 0.833713 0.833536 0.833261 0.832981 0.8327 0.832417
0.832136 0.831863 0.831602 0.831354 0.831123 0.830907 0.830705 0.830516 0.830334 0.830163
0.829992 0.829807 0.829586 0.829244 0.828673 0.833394 0.833716 0.833539 0.833264 0.832984
0.832704 0.83242 0.832139 0.831866 0.831605 0.831357 0.831126 0.830911 0.830709 0.83052
0.830339 0.830167 0.829997 0.829811 0.82959 0.829248 0.828677 0.833396 0.833717 0.83354
0.833265 0.832986 0.832705 0.832422 0.832141 0.831868 0.831607 0.831359 0.831128 0.830913
0.830711 0.830522 0.830341 0.830169 0.829999 0.829813 0.829592 0.82925 0.828679 0.832914
0.8332 0.833019 0.832747 0.832466 0.83219 0.831909 0.83163 0.831358 0.831094 0.83085
0.830621 0.830406 0.830205 0.830013 0.829835 0.829665 0.829495 0.82931 0.829085 0.828749
0.82818 0.832968 0.833254 0.833073 0.8328 0.832519 0.832243 0.831962 0.831682 0.83141
0.831147 0.830902 0.830673 0.830458 0.830257 0.830064 0.829887 0.829716 0.829546 0.829361
0.829137 0.8288 0.828232 0.833018 0.833307 0.833125 0.832852 0.832571 0.832294 0.832013
0.831733 0.831461 0.831197 0.830953 0.830723 0.830508 0.830306 0.830114 0.829936 0.829765
0.829595 0.82941 0.829186 0.828849 0.82828 0.833067 0.833357 0.833175 0.832901 0.832621
0.832344 0.832062 0.831782 0.831509 0.831245 0.831 0.83077 0.830555 0.830353 0.830161
0.829983 0.829812 0.829642 0.829457 0.829233 0.828896 0.828327 0.833112 0.833405 0.833222
0.832949 0.832668 0.83239 0.832108 0.831828 0.831555 0.831291 0.831046 0.830815 0.8306
0.830398 0.830206 0.830027 0.829856 0.829686 0.829501 0.829277 0.82894 0.828371 0.833154
0.833449 0.833267 0.832993 0.832712 0.832434 0.832152 0.831871 0.831598 0.831334 0.831088
0.830858 0.830642 0.83044 0.830248 0.830069 0.829897 0.829727 0.829542 0.829318 0.828982
0.828413 0.833192 0.833491 0.833308 0.833034 0.832753 0.832475 0.832192 0.831912 0.831638
0.831374 0.831128 0.830897 0.830681 0.830479 0.830287 0.830107 0.829936 0.829766 0.829581
0.829357 0.829021 0.828451 0.833228 0.833529 0.833347 0.833072 0.832791 0.832512 0.83223
0.831949 0.831675 0.831411 0.831164 0.830933 0.830717 0.830515 0.830323 0.830143 0.829972
0.829801 0.829616 0.829393 0.829057 0.828487 0.833259 0.833564 0.833381 0.833107 0.832825
0.832547 0.832264 0.831983 0.831709 0.831445 0.831198 0.830967 0.830751 0.830548 0.830356
0.830176 0.830005 0.829834 0.829649 0.829426 0.82909 0.82852 0.833287 0.833595 0.833413
0.833138 0.832856 0.832578 0.832294 0.832013 0.831739 0.831475 0.831228 0.830997 0.830781
0.830578 0.830386 0.830206 0.830034 0.829864 0.829679 0.829456 0.82912 0.828549 0.833312
0.833622 0.83344 0.833165 0.832884 0.832605 0.832322 0.83204 0.831766 0.831502 0.831255
0.831024 0.830807 0.830605 0.830413 0.830233 0.830061 0.829891 0.829705 0.829483 0.829146
0.828576 0.833333 0.833646 0.833464 0.833189 0.832908 0.832628 0.832345 0.832064 0.83179
0.831526 0.831279 0.831047 0.830831 0.830628 0.830436 0.830257 0.830085 0.829914 0.829729
0.829506 0.82917 0.828599 0.833351 0.833665 0.833485 0.83321 0.832928 0.832649 0.832365
0.832084 0.83181 0.831546 0.831299 0.831068 0.830852 0.830649 0.830457 0.830277 0.830105
0.829935 0.82975 0.829527 0.82919 0.828619 0.833366 0.833682 0.833502 0.833227 0.832945
0.832666 0.832382 0.832101 0.831827 0.831564 0.831316 0.831085 0.830869 0.830666 0.830475
0.830295 0.830123 0.829953 0.829768 0.829545 0.829207 0.828637 0.833378 0.833695 0.833516
0.83324 0.832959 0.832679 0.832396 0.832115 0.831841 0.831578 0.83133 0.831099 0.830883
0.830681 0.830489 0.83031 0.830138 0.829967 0.829782 0.829559 0.829222 0.828651 0.833388
0.833705 0.833526 0.833251 0.832969 0.83269 0.832407 0.832125 0.831852 0.831589 0.831342
0.831111 0.830895 0.830693 0.830501 0.830321 0.83015 0.829979 0.829794 0.829571 0.829233
0.828662 0.833395 0.833712 0.833534 0.833259 0.832977 0.832698 0.832414 0.832133 0.83186
0.831597 0.83135 0.831119 0.830904 0.830701 0.83051 0.830331 0.830159 0.829989 0.829804
0.82958 0.829242 0.828671 0.8334 0.833717 0.833539 0.833264 0.832982 0.832703 0.83242
0.832139 0.831865 0.831603 0.831356 0.831125 0.83091 0.830708 0.830517 0.830337 0.830166
0.829996 0.82981 0.829587 0.829248 0.828677 0.833404 0.83372 0.833542 0.833267 0.832986
0.832706 0.832423 0.832142 0.831869 0.831606 0.83136 0.831129 0.830914 0.830712 0.830521
0.830341 0.83017 0.83 0.829814 0.829591 0.829252 0.828681 0.833405 0.833721 0.833544
0.833268 0.832987 0.832707 0.832424 0.832143 0.83187 0.831608 0.831361 0.831131 0.830916
0.830714 0.830523 0.830343 0.830172 0.830002 0.829817 0.829593 0.829253 0.828683 0.832902
0.833835 0.83443 0.834487 0.83448 0.834435 0.833943 0.833974 0.83444 0.834482 0.834482
0.834439 0.833966 0.833971 0.83444 0.834483 0.834483 0.83444 0.83397 0.833972 0.834441
0.834483 0.834483 0.834441 0.833972 0.833969 0.83444 0.834482 0.834482 0.83444 0.833969
0.833964 0.834438 0.834481 0.834482 0.83444 0.833976 0.833944 0.834436 0.834482 0.83449
0.834434 0.833842 0.832914 0.832955 0.833891 0.834489 0.834545 0.834538 0.834494 0.833998
0.83403 0.834498 0.83454 0.83454 0.834498 0.834022 0.834026 0.834499 0.834541 0.834541
0.834499 0.834025 0.834027 0.834499 0.834541 0.834541 0.834499 0.834027 0.834024 0.834498
0.83454 0.83454 0.834499 0.834025 0.83402 0.834497 0.834539 0.83454 0.834499 0.834031
0.833999 0.834495 0.83454 0.834548 0.834492 0.833898 0.832968 0.833006 0.833946 0.834548
0.834603 0.834596 0.834553 0.834052 0.834083 0.834557 0.834598 0.834598 0.834556 0.834075
0.83408 0.834557 0.834598 0.834598 0.834557 0.834078 0.83408 0.834557 0.834598 0.834598
0.834557 0.83408 0.834077 0.834557 0.834598 0.834598 0.834557 0.834078 0.834073 0.834555
0.834597 0.834598 0.834557 0.834085 0.834053 0.834553 0.834597 0.834605 0.834551 0.833952
0.833018 0.833055 0.833998 0.834607 0.834659 0.834652 0.834611 0.834102 0.834134 0.834615
0.834654 0.834654 0.834614 0.834126 0.83413 0.834615 0.834654 0.834654 0.834615 0.834129
0.834131 0.834615 0.834654 0.834654 0.834615 0.834131 0.834128 0.834614 0.834654 0.834654