# vtk DataFile Version 2.0
agdlSides
ASCII
DATASET POLYDATA
POINTS 2772 float
0.0035444 0 0 0.0035649 0 0 0.0035649 0 0.001 0.0035444 0
0.001 0.0035649 0 0.002 0.0035444 0 0.002 0.0035649 0 0.003
0.0035444 0 0.003 0.0035649 0 0.004 0.0035444 0 0.004 0.0035649
0 0.005 0.0035444 0 0.005 0.0035649 0 0.006 0.0035444 0
0.006 0.0035649 0 0.007 0.0035444 0 0.007 0.0035649 0 0.008
0.0035444 0 0.008 0.0035649 0 0.009 0.0035444 0 0.009 0.0035649
0 0.01 0.0035444 0 0.01 0.0035649 0 0.011 0.0035444 0
0.011 0.0035649 0 0.012 0.0035444 0 0.012 0.0035649 0 0.013
0.0035444 0 0.013 0.0035649 0 0.014 0.0035444 0 0.014 0.0035649
0 0.015 0.0035444 0 0.015 0.0035649 0 0.016 0.0035444 0
0.016 0.0035649 0 0.017 0.0035444 0 0.017 0.0035649 0 0.018
0.0035444 0 0.018 0.0035649 0 0.019 0.0035444 0 0.019 0.0035649
0 0.02 0.0035444 0 0.02 0.0035649 0 0.021 0.0035444 0
0.021 0.0035649 0 0.022 0.0035444 0 0.022 0.0035854 0 0
0.0035854 0 0.001 0.0035854 0 0.002 0.0035854 0 0.003 0.0035854
0 0.004 0.0035854 0 0.005 0.0035854 0 0.006 0.0035854 0
0.007 0.0035854 0 0.008 0.0035854 0 0.009 0.0035854 0 0.01
0.0035854 0 0.011 0.0035854 0 0.012 0.0035854 0 0.013 0.0035854
0 0.014 0.0035854 0 0.015 0.0035854 0 0.016 0.0035854 0
0.017 0.0035854 0 0.018 0.0035854 0 0.019 0.0035854 0 0.02
0.0035854 0 0.021 0.0035854 0 0.022 0.0036059 0 0 0.0036059
0 0.001 0.0036059 0 0.002 0.0036059 0 0.003 0.0036059 0
0.004 0.0036059 0 0.005 0.0036059 0 0.006 0.0036059 0 0.007
0.0036059 0 0.008 0.0036059 0 0.009 0.0036059 0 0.01 0.0036059
0 0.011 0.0036059 0 0.012 0.0036059 0 0.013 0.0036059 0
0.014 0.0036059 0 0.015 0.0036059 0 0.016 0.0036059 0 0.017
0.0036059 0 0.018 0.0036059 0 0.019 0.0036059 0 0.02 0.0036059
0 0.021 0.0036059 0 0.022 0.0036264 0 0 0.0036264 0
0.001 0.0036264 0 0.002 0.0036264 0 0.003 0.0036264 0 0.004
0.0036264 0 0.005 0.0036264 0 0.006 0.0036264 0 0.007 0.0036264
0 0.008 0.0036264 0 0.009 0.0036264 0 0.01 0.0036264 0
0.011 0.0036264 0 0.012 0.0036264 0 0.013 0.0036264 0 0.014
0.0036264 0 0.015 0.0036264 0 0.016 0.0036264 0 0.017 0.0036264
0 0.018 0.0036264 0 0.019 0.0036264 0 0.02 0.0036264 0
0.021 0.0036264 0 0.022 0.0036469 0 0 0.0036469 0 0.001
0.0036469 0 0.002 0.0036469 0 0.003 0.0036469 0 0.004 0.0036469
0 0.005 0.0036469 0 0.006 0.0036469 0 0.007 0.0036469 0
0.008 0.0036469 0 0.009 0.0036469 0 0.01 0.0036469 0 0.011
0.0036469 0 0.012 0.0036469 0 0.013 0.0036469 0 0.014 0.0036469
0 0.015 0.0036469 0 0.016 0.0036469 0 0.017 0.0036469 0
0.018 0.0036469 0 0.019 0.0036469 0 0.02 0.0036469 0 0.021
0.0036469 0 0.022 0.0036674 0 0 0.0036674 0 0.001 0.0036674
0 0.002 0.0036674 0 0.003 0.0036674 0 0.004 0.0036674 0
0.005 0.0036674 0 0.006 0.0036674 0 0.007 0.0036674 0 0.008
0.0036674 0 0.009 0.0036674 0 0.01 0.0036674 0 0.011 0.0036674
0 0.012 0.0036674 0 0.013 0.0036674 0 0.014 0.0036674 0
0.015 0.0036674 0 0.016 0.0036674 0 0.017 0.0036674 0 0.018
0.0036674 0 0.019 0.0036674 0 0.02 0.0036674 0 0.021 0.0036674
0 0.022 0.0036879 0 0 0.0036879 0 0.001 0.0036879 0
0.002 0.0036879 0 0.003 0.0036879 0 0.004 0.0036879 0 0.005
0.0036879 0 0.006 0.0036879 0 0.007 0.0036879 0 0.008 0.0036879
0 0.009 0.0036879 0 0.01 0.0036879 0 0.011 0.0036879 0
0.012 0.0036879 0 0.013 0.0036879 0 0.014 0.0036879 0 0.015
0.0036879 0 0.016 0.0036879 0 0.017 0.0036879 0 0.018 0.0036879
0 0.019 0.0036879 0 0.02 0.0036879 0 0.021 0.0036879 0
0.022 0.0037084 0 0 0.0037084 0 0.001 0.0037084 0 0.002
0.0037084 0 0.003 0.0037084 0 0.004 0.0037084 0 0.005 0.0037084
0 0.006 0.0037084 0 0.007 0.0037084 0 0.008 0.0037084 0
0.009 0.0037084 0 0.01 0.0037084 0 0.011 0.0037084 0 0.012
0.0037084 0 0.013 0.0037084 0 0.014 0.0037084 0 0.015 0.0037084
0 0.016 0.0037084 0 0.017 0.0037084 0 0.018 0.0037084 0
0.019 0.0037084 0 0.02 0.0037084 0 0.021 0.0037084 0 0.022
0.0037289 0 0 0.0037289 0 0.001 0.0037289 0 0.002 0.0037289
0 0.003 0.0037289 0 0.004 0.0037289 0 0.005 0.0037289 0
0.006 0.0037289 0 0.007 0.0037289 0 0.008 0.0037289 0 0.009
0.0037289 0 0.01 0.0037289 0 0.011 0.0037289 0 0.012 0.0037289
0 0.013 0.0037289 0 0.014 0.0037289 0 0.015 0.0037289 0
0.016 0.0037289 0 0.017 0.0037289 0 0.018 0.0037289 0 0.019
0.0037289 0 0.02 0.0037289 0 0.021 0.0037289 0 0.022 0.0037494
0 0 0.0037494 0 0.001 0.0037494 0 0.002 0.0037494 0
0.003 0.0037494 0 0.004 0.0037494 0 0.005 0.0037494 0 0.006
0.0037494 0 0.007 0.0037494 0 0.008 0.0037494 0 0.009 0.0037494
0 0.01 0.0037494 0 0.011 0.0037494 0 0.012 0.0037494 0
0.013 0.0037494 0 0.014 0.0037494 0 0.015 0.0037494 0 0.016
0.0037494 0 0.017 0.0037494 0 0.018 0.0037494 0 0.019 0.0037494
0 0.02 0.0037494 0 0.021 0.0037494 0 0.022 0.0037699 0
0 0.0037699 0 0.001 0.0037699 0 0.002 0.0037699 0 0.003
0.0037699 0 0.004 0.0037699 0 0.005 0.0037699 0 0.006 0.0037699
0 0.007 0.0037699 0 0.008 0.0037699 0 0.009 0.0037699 0
0.01 0.0037699 0 0.011 0.0037699 0 0.012 0.0037699 0 0.013
0.0037699 0 0.014 0.0037699 0 0.015 0.0037699 0 0.016 0.0037699
0 0.017 0.0037699 0 0.018 0.0037699 0 0.019 0.0037699 0
0.02 0.0037699 0 0.021 0.0037699 0 0.022 0.0037904 0 0
0.0037904 0 0.001 0.0037904 0 0.002 0.0037904 0 0.003 0.0037904
0 0.004 0.0037904 0 0.005 0.0037904 0 0.006 0.0037904 0
0.007 0.0037904 0 0.008 0.0037904 0 0.009 0.0037904 0 0.01
0.0037904 0 0.011 0.0037904 0 0.012 0.0037904 0 0.013 0.0037904
0 0.014 0.0037904 0 0.015 0.0037904 0 0.016 0.0037904 0
0.017 0.0037904 0 0.018 0.0037904 0 0.019 0.0037904 0 0.02
0.0037904 0 0.021 0.0037904 0 0.022 0.0038109 0 0 0.0038109
0 0.001 0.0038109 0 0.002 0.0038109 0 0.003 0.0038109 0
0.004 0.0038109 0 0.005 0.0038109 0 0.006 0.0038109 0 0.007
0.0038109 0 0.008 0.0038109 0 0.009 0.0038109 0 0.01 0.0038109
0 0.011 0.0038109 0 0.012 0.0038109 0 0.013 0.0038109 0
0.014 0.0038109 0 0.015 0.0038109 0 0.016 0.0038109 0 0.017
0.0038109 0 0.018 0.0038109 0 0.019 0.0038109 0 0.02 0.0038109
0 0.021 0.0038109 0 0.022 0.0038314 0 0 0.0038314 0
0.001 0.0038314 0 0.002 0.0038314 0 0.003 0.0038314 0 0.004
0.0038314 0 0.005 0.0038314 0 0.006 0.0038314 0 0.007 0.0038314
0 0.008 0.0038314 0 0.009 0.0038314 0 0.01 0.0038314 0
0.011 0.0038314 0 0.012 0.0038314 0 0.013 0.0038314 0 0.014
0.0038314 0 0.015 0.0038314 0 0.016 0.0038314 0 0.017 0.0038314
0 0.018 0.0038314 0 0.019 0.0038314 0 0.02 0.0038314 0
0.021 0.0038314 0 0.022 0.0038519 0 0 0.0038519 0 0.001
0.0038519 0 0.002 0.0038519 0 0.003 0.0038519 0 0.004 0.0038519
0 0.005 0.0038519 0 0.006 0.0038519 0 0.007 0.0038519 0
0.008 0.0038519 0 0.009 0.0038519 0 0.01 0.0038519 0 0.011
0.0038519 0 0.012 0.0038519 0 0.013 0.0038519 0 0.014 0.0038519
0 0.015 0.0038519 0 0.016 0.0038519 0 0.017 0.0038519 0
0.018 0.0038519 0 0.019 0.0038519 0 0.02 0.0038519 0 0.021
0.0038519 0 0.022 0.0038724 0 0 0.0038724 0 0.001 0.0038724
0 0.002 0.0038724 0 0.003 0.0038724 0 0.004 0.0038724 0
0.005 0.0038724 0 0.006 0.0038724 0 0.007 0.0038724 0 0.008
0.0038724 0 0.009 0.0038724 0 0.01 0.0038724 0 0.011 0.0038724
0 0.012 0.0038724 0 0.013 0.0038724 0 0.014 0.0038724 0
0.015 0.0038724 0 0.016 0.0038724 0 0.017 0.0038724 0 0.018
0.0038724 0 0.019 0.0038724 0 0.02 0.0038724 0 0.021 0.0038724
0 0.022 0.0038929 0 0 0.0038929 0 0.001 0.0038929 0
0.002 0.0038929 0 0.003 0.0038929 0 0.004 0.0038929 0 0.005
0.0038929 0 0.006 0.0038929 0 0.007 0.0038929 0 0.008 0.0038929
0 0.009 0.0038929 0 0.01 0.0038929 0 0.011 0.0038929 0
0.012 0.0038929 0 0.013 0.0038929 0 0.014 0.0038929 0 0.015
0.0038929 0 0.016 0.0038929 0 0.017 0.0038929 0 0.018 0.0038929
0 0.019 0.0038929 0 0.02 0.0038929 0 0.021 0.0038929 0
0.022 0.0039134 0 0 0.0039134 0 0.001 0.0039134 0 0.002
0.0039134 0 0.003 0.0039134 0 0.004 0.0039134 0 0.005 0.0039134
0 0.006 0.0039134 0 0.007 0.0039134 0 0.008 0.0039134 0
0.009 0.0039134 0 0.01 0.0039134 0 0.011 0.0039134 0 0.012
0.0039134 0 0.013 0.0039134 0 0.014 0.0039134 0 0.015 0.0039134
0 0.016 0.0039134 0 0.017 0.0039134 0 0.018 0.0039134 0
0.019 0.0039134 0 0.02 0.0039134 0 0.021 0.0039134 0 0.022
0.0039339 0 0 0.0039339 0 0.001 0.0039339 0 0.002 0.0039339
0 0.003 0.0039339 0 0.004 0.0039339 0 0.005 0.0039339 0
0.006 0.0039339 0 0.007 0.0039339 0 0.008 0.0039339 0 0.009
0.0039339 0 0.01 0.0039339 0 0.011 0.0039339 0 0.012 0.0039339
0 0.013 0.0039339 0 0.014 0.0039339 0 0.015 0.0039339 0
0.016 0.0039339 0 0.017 0.0039339 0 0.018 0.0039339 0 0.019
0.0039339 0 0.02 0.0039339 0 0.021 0.0039339 0 0.022 0.0039544
0 0 0.0039544 0 0.001 0.0039544 0 0.002 0.0039544 0
0.003 0.0039544 0 0.004 0.0039544 0 0.005 0.0039544 0 0.006
0.0039544 0 0.007 0.0039544 0 0.008 0.0039544 0 0.009 0.0039544
0 0.01 0.0039544 0 0.011 0.0039544 0 0.012 0.0039544 0
0.013 0.0039544 0 0.014 0.0039544 0 0.015 0.0039544 0 0.016
0.0039544 0 0.017 0.0039544 0 0.018 0.0039544 0 0.019 0.0039544
0 0.02 0.0039544 0 0.021 0.0039544 0 0.022 0.0035444 0.022
0 0.0035444 0.022 0.001 0.0035649 0.022 0.001 0.0035649 0.022 0
0.0035444 0.022 0.002 0.0035649 0.022 0.002 0.0035444 0.022 0.003 0.0035649
0.022 0.003 0.0035444 0.022 0.004 0.0035649 0.022 0.004 0.0035444 0.022
0.005 0.0035649 0.022 0.005 0.0035444 0.022 0.006 0.0035649 0.022 0.006
0.0035444 0.022 0.007 0.0035649 0.022 0.007 0.0035444 0.022 0.008 0.0035649
0.022 0.008 0.0035444 0.022 0.009 0.0035649 0.022 0.009 0.0035444 0.022
0.01 0.0035649 0.022 0.01 0.0035444 0.022 0.011 0.0035649 0.022 0.011
0.0035444 0.022 0.012 0.0035649 0.022 0.012 0.0035444 0.022 0.013 0.0035649
0.022 0.013 0.0035444 0.022 0.014 0.0035649 0.022 0.014 0.0035444 0.022
0.015 0.0035649 0.022 0.015 0.0035444 0.022 0.016 0.0035649 0.022 0.016
0.0035444 0.022 0.017 0.0035649 0.022 0.017 0.0035444 0.022 0.018 0.0035649
0.022 0.018 0.0035444 0.022 0.019 0.0035649 0.022 0.019 0.0035444 0.022
0.02 0.0035649 0.022 0.02 0.0035444 0.022 0.021 0.0035649 0.022 0.021
0.0035444 0.022 0.022 0.0035649 0.022 0.022 0.0035854 0.022 0.001 0.0035854
0.022 0 0.0035854 0.022 0.002 0.0035854 0.022 0.003 0.0035854 0.022
0.004 0.0035854 0.022 0.005 0.0035854 0.022 0.006 0.0035854 0.022 0.007
0.0035854 0.022 0.008 0.0035854 0.022 0.009 0.0035854 0.022 0.01 0.0035854
0.022 0.011 0.0035854 0.022 0.012 0.0035854 0.022 0.013 0.0035854 0.022
[...]
CELL_DATA 2640
FIELD attributes 16
patchID 1 2640 float
1 1 1 1 1 1 1 1 1 1 1
1 1 1 1 1 1 1 1 1 1
1 1 1 1 1 1 1 1 1 1
1 1 1 1 1 1 1 1 1 1
1 1 1 1 1 1 1 1 1 1
1 1 1 1 1 1 1 1 1 1
1 1 1 1 1 1 1 1 1 1
1 1 1 1 1 1 1 1 1 1
1 1 1 1 1 1 1 1 1 1
1 1 1 1 1 1 1 1 1 1
1 1 1 1 1 1 1 1 1 1
1 1 1 1 1 1 1 1 1 1
1 1 1 1 1 1 1 1 1 1
1 1 1 1 1 1 1 1 1 1
1 1 1 1 1 1 1 1 1 1
1 1 1 1 1 1 1 1 1 1
1 1 1 1 1 1 1 1 1 1
1 1 1 1 1 1 1 1 1 1
1 1 1 1 1 1 1 1 1 1
1 1 1 1 1 1 1 1 1 1
1 1 1 1 1 1 1 1 1 1
1 1 1 1 1 1 1 1 1 1
1 1 1 1 1 1 1 1 1 1
1 1 1 1 1 1 1 1 1 1
1 1 1 1 1 1 1 1 1 1
1 1 1 1 1 1 1 1 1 1
1 1 1 1 1 1 1 1 1 1
1 1 1 1 1 1 1 1 1 1
1 1 1 1 1 1 1 1 1 1
1 1 1 1 1 1 1 1 1 1
1 1 1 1 1 1 1 1 1 1
1 1 1 1 1 1 1 1 1 1
1 1 1 1 1 1 1 1 1 1
1 1 1 1 1 1 1 1 1 1
1 1 1 1 1 1 1 1 1 1
1 1 1 1 1 1 1 1 1 1
1 1 1 1 1 1 1 1 1 1
1 1 1 1 1 1 1 1 1 1
1 1 1 1 1 1 1 1 1 1
1 1 1 1 1 1 1 1 1 1
1 1 1 1 1 1 1 1 1 1
1 1 1 1 1 1 1 1 1 1
1 1 1 1 1 1 1 1 1 1
1 1 1 1 1 1 1 1 1 1
1 1 1 1 1 1 1 1 1 1
1 1 1 1 1 1 1 1 1 1
1 1 1 1 1 1 1 1 1 1
1 1 1 1 1 1 1 1 1 1
1 1 1 1 1 1 1 1 1 1
1 1 1 1 1 1 1 1 1 1
1 1 1 1 1 1 1 1 1 1
1 1 1 1 1 1 1 1 1 1
1 1 1 1 1 1 1 1 1 1
1 1 1 1 1 1 1 1 1 1
1 1 1 1 1 1 1 1 1 1
1 1 1 1 1 1 1 1 1 1
1 1 1 1 1 1 1 1 1 1
1 1 1 1 1 1 1 1 1 1
1 1 1 1 1 1 1 1 1 1
1 1 1 1 1 1 1 1 1 1
1 1 1 1 1 1 1 1 1 1
1 1 1 1 1 1 1 1 1 1
1 1 1 1 1 1 1 1 1 1
1 1 1 1 1 1 1 1 1 1
1 1 1 1 1 1 1 1 1 1
1 1 1 1 1 1 1 1 1 1
1 1 1 1 1 1 1 1 1 1
1 1 1 1 1 1 1 1 1 1
1 1 1 1 1 1 1 1 1 1
1 1 1 1 1 1 1 1 1 1
1 1 1 1 1 1 1 1 1 1
1 1 1 1 1 1 1 1 1 1
1 1 1 1 1 1 1 1 1 1
1 1 1 1 1 1 1 1 1 1
1 1 1 1 1 1 1 1 1 1
1 1 1 1 1 1 1 1 1 1
1 1 1 1 1 1 1 1 1 1
1 1 1 1 1 1 1 1 1 1
1 1 1 1 1 1 1 1 1 1
1 1 1 1 1 1 1 1 1 1
1 1 1 1 1 1 1 1 1 1
1 1 1 1 1 1 1 1 1 1
1 1 1 1 1 1 1 1 1 1
1 1 1 1 1 1 1 1 1 1
1 1 1 1 1 1 1 1 1 1
1 1 1 1 1 1 1 1 1 1
1 1 1 1 1 1 1 1 1 1
1 1 1 1 1 1 1 1 1 1
1 1 1 1 1 1 1 1 1 1
1 1 1 1 1 1 1 1 1 1
1 1 1 1 1 1 1 1 1 1
1 1 1 1 1 1 1 1 1 1
1 1 1 1 1 1 1 1 1 1
1 1 1 1 1 1 1 1 1 1
1 1 1 1 1 1 1 1 1 1
1 1 1 1 1 1 1 1 1 1
1 1 1 1 1 1 1 1 1 1
1 1 1 1 1 1 1 1 1 1
1 1 1 1 1 1 1 1 1 1
1 1 1 1 1 1 1 1 1 1
1 1 1 1 1 1 1 1 1 1
1 1 1 1 1 1 1 1 1 1
1 1 1 1 1 1 1 1 1 1
1 1 1 1 1 1 1 1 1 1
1 1 1 1 1 1 1 1 1 1
1 1 1 1 1 1 1 1 1 1
1 1 1 1 1 1 1 1 1 1
1 1 1 1 1 1 1 1 1 1
1 1 1 1 1 1 1 1 1 1
1 1 1 1 1 1 1 1 1 1
1 1 1 1 1 1 1 1 1 1
1 1 1 1 1 1 1 1 1 1
1 1 1 1 1 1 1 1 1 1
1 1 1 1 1 1 1 1 1 1
1 1 1 1 1 1 1 1 1 1
1 1 1 1 1 1 1 1 1 1
1 1 1 1 1 1 1 1 1 1
1 1 1 1 1 1 1 1 1 1
1 1 1 1 1 1 1 1 1 1
1 1 1 1 1 1 1 1 1 1
1 1 1 1 1 1 1 1 1 1
1 1 1 1 1 1 1 1 1 1
1 1 1 1 1 1 1 1 1 1
1 1 1 1 1 1 1 1 1 1
1 1 1 1 1 1 1 1 1 1
1 1 1 1 1 1 1 1 1 1
1 1 1 1 1 1 1 1 1 1
1 1 1 1 1 1 1 1 1 1
1 1 1 1 1 1 1 1 1 1
1 1 1 1 1 1 1 1 1 1
1 1 1 1 1 1 1 1 1 1
1 1 1 1 1 1 1 1 1 1
1 1 1 1 1 1 1 1 1 1
1 1 1 1 1 1 1 1 1 1
1 1 1 1 1 1 1 1 1 1
1 1 1 1 1 1 1 1 1 1
1 1 1 1 1 1 1 1 1 1
1 1 1 1 1 1 1 1 1 1
1 1 1 1 1 1 1 1 1 1
1 1 1 1 1 1 1 1 1 1
1 1 1 1 1 1 1 1 1 1
1 1 1 1 1 1 1 1 1 1
1 1 1 1 1 1 1 1 1 1
1 1 1 1 1 1 1 1 1 1
1 1 1 1 1 1 1 1 1 1
1 1 1 1 1 1 1 1 1 1
1 1 1 1 1 1 1 1 1 1
1 1 1 1 1 1 1 1 1 1
1 1 1 1 1 1 1 1 1 1
1 1 1 1 1 1 1 1 1 1
1 1 1 1 1 1 1 1 1 1
1 1 1 1 1 1 1 1 1 1
1 1 1 1 1 1 1 1 1 1
1 1 1 1 1 1 1 1 1 1
1 1 1 1 1 1 1 1 1 1
1 1 1 1 1 1 1 1 1 1
1 1 1 1 1 1 1 1 1 1
1 1 1 1 1 1 1 1 1 1
1 1 1 1 1 1 1 1 1 1
1 1 1 1 1 1 1 1 1 1
1 1 1 1 1 1 1 1 1 1
1 1 1 1 1 1 1 1 1 1
1 1 1 1 1 1 1 1 1 1
1 1 1 1 1 1 1 1 1 1
1 1 1 1 1 1 1 1 1 1
1 1 1 1 1 1 1 1 1 1
1 1 1 1 1 1 1 1 1 1
1 1 1 1 1 1 1 1 1 1
1 1 1 1 1 1 1 1 1 1
1 1 1 1 1 1 1 1 1 1
1 1 1 1 1 1 1 1 1 1
1 1 1 1 1 1 1 1 1 1
1 1 1 1 1 1 1 1 1 1
1 1 1 1 1 1 1 1 1 1
1 1 1 1 1 1 1 1 1 1
1 1 1 1 1 1 1 1 1 1
1 1 1 1 1 1 1 1 1 1
1 1 1 1 1 1 1 1 1 1
1 1 1 1 1 1 1 1 1 1
1 1 1 1 1 1 1 1 1 1
1 1 1 1 1 1 1 1 1 1
1 1 1 1 1 1 1 1 1 1
1 1 1 1 1 1 1 1 1 1
1 1 1 1 1 1 1 1 1 1
1 1 1 1 1 1 1 1 1 1
1 1 1 1 1 1 1 1 1 1
1 1 1 1 1 1 1 1 1 1
1 1 1 1 1 1 1 1 1 1
1 1 1 1 1 1 1 1 1 1
1 1 1 1 1 1 1 1 1 1
1 1 1 1 1 1 1 1 1 1
1 1 1 1 1 1 1 1 1 1
1 1 1 1 1 1 1 1 1 1
1 1 1 1 1 1 1 1 1 1
1 1 1 1 1 1 1 1 1 1
1 1 1 1 1 1 1 1 1 1
1 1 1 1 1 1 1 1 1 1
1 1 1 1 1 1 1 1 1 1
1 1 1 1 1 1 1 1 1 1
1 1 1 1 1 1 1 1 1 1
1 1 1 1 1 1 1 1 1 1
1 1 1 1 1 1 1 1 1 1
1 1 1 1 1 1 1 1 1 1
1 1 1 1 1 1 1 1 1 1
1 1 1 1 1 1 1 1 1 1
1 1 1 1 1 1 1 1 1 1
1 1 1 1 1 1 1 1 1 1
1 1 1 1 1 1 1 1 1 1
1 1 1 1 1 1 1 1 1 1
1 1 1 1 1 1 1 1 1 1
1 1 1 1 1 1 1 1 1 1
1 1 1 1 1 1 1 1 1 1
1 1 1 1 1 1 1 1 1 1
1 1 1 1 1 1 1 1 1 1
1 1 1 1 1 1 1 1 1 1
1 1 1 1 1 1 1 1 1 1
1 1 1 1 1 1 1 1 1 1
1 1 1 1 1 1 1 1 1 1
1 1 1 1 1 1 1 1 1 1
1 1 1 1 1 1 1 1 1 1
1 1 1 1 1 1 1 1 1 1
1 1 1 1 1 1 1 1 1 1
1 1 1 1 1 1 1 1 1 1
1 1 1 1 1 1 1 1 1 1
1 1 1 1 1 1 1 1 1 1
1 1 1 1 1 1 1 1 1 1
1 1 1 1 1 1 1 1 1 1
1 1 1 1 1 1 1 1 1 1
1 1 1 1 1 1 1 1 1 1
1 1 1 1 1 1 1 1 1 1
1 1 1 1 1 1 1 1 1 1
1 1 1 1 1 1 1 1 1 1
1 1 1 1 1 1 1 1 1 1
1 1 1 1 1 1 1 1 1 1
1 1 1 1 1 1 1 1 1 1
1 1 1 1 1 1 1 1 1 1
1 1 1 1 1 1 1 1 1 1
1 1 1 1 1 1 1 1 1 1
1 1 1 1 1 1 1 1 1 1
1 1 1 1 1 1 1 1 1 1
1 1 1 1 1 1 1 1 1 1
1 1 1 1 1 1 1 1 1 1
1 1 1 1 1 1 1 1 1 1
1 1 1 1 1 1 1 1 1 1
1 1 1 1 1 1 1 1 1 1
1 1 1 1 1 1 1 1 1 1
1 1 1 1 1 1 1 1 1 1
1 1 1 1 1 1 1 1 1 1
1 1 1 1 1 1 1 1 1 1
1 1 1 1 1 1 1 1 1 1
1 1 1 1 1 1 1 1 1 1
1 1 1 1 1 1 1 1 1 1
1 1 1 1 1 1 1 1 1 1
1 1 1 1 1 1 1 1 1 1
1 1 1 1 1 1 1 1 1 1
1 1 1 1 1 1 1 1 1 1
1 1 1 1 1 1 1 1 1 1
1 1 1 1 1 1 1 1 1 1
1 1 1 1 1 1 1 1 1 1
1 1 1 1 1 1 1 1 1 1
1 1 1 1 1 1 1 1 1 1
1 1 1 1 1 1 1 1 1 1
1 1 1 1 1 1 1 1 1 1
1 1 1 1 1 1 1 1 1 
diffH2Ofuel 1 2640 float
0 0 0 0 0 0 0 0 0 0 0
0 0 0 0 0 0 0 0 0 0
0 0 0 0 0 0 0 0 0 0
0 0 0 0 0 0 0 0 0 0
0 0 0 0 0 0 0 0 0 0
0 0 0 0 0 0 0 0 0 0
0 0 0 0 0 0 0 0 0 0
0 0 0 0 0 0 0 0 0 0
0 0 0 0 0 0 0 0 0 0
0 0 0 0 0 0 0 0 0 0
0 0 0 0 0 0 0 0 0 0
0 0 0 0 0 0 0 0 0 0
0 0 0 0 0 0 0 0 0 0
0 0 0 0 0 0 0 0 0 0
0 0 0 0 0 0 0 0 0 0
0 0 0 0 0 0 0 0 0 0
0 0 0 0 0 0 0 0 0 0
0 0 0 0 0 0 0 0 0 0
0 0 0 0 0 0 0 0 0 0
0 0 0 0 0 0 0 0 0 0
0 0 0 0 0 0 0 0 0 0
0 0 0 0 0 0 0 0 0 0
0 0 0 0 0 0 0 0 0 0
0 0 0 0 0 0 0 0 0 0
0 0 0 0 0 0 0 0 0 0
0 0 0 0 0 0 0 0 0 0
0 0 0 0 0 0 0 0 0 0
0 0 0 0 0 0 0 0 0 0
0 0 0 0 0 0 0 0 0 0
0 0 0 0 0 0 0 0 0 0
0 0 0 0 0 0 0 0 0 0
0 0 0 0 0 0 0 0 0 0
0 0 0 0 0 0 0 0 0 0
0 0 0 0 0 0 0 0 0 0
0 0 0 0 0 0 0 0 0 0
0 0 0 0 0 0 0 0 0 0
0 0 0 0 0 0 0 0 0 0
0 0 0 0 0 0 0 0 0 0
0 0 0 0 0 0 0 0 0 0
0 0 0 0 0 0 0 0 0 0
0 0 0 0 0 0 0 0 0 0
0 0 0 0 0 0 0 0 0 0
0 0 0 0 0 0 0 0 0 0
0 0 0 0 0 0 0 0 0 0
0 0 0 0 0 0 0 0 0 0
0 0 0 0 0 0 0 0 0 0
0 0 0 0 0 0 0 0 0 0
0 0 0 0 0 0 0 0 0 0
0 0 0 0 0 0 0 0 0 0
0 0 0 0 0 0 0 0 0 0
0 0 0 0 0 0 0 0 0 0
0 0 0 0 0 0 0 0 0 0
0 0 0 0 0 0 0 0 0 0
0 0 0 0 0 0 0 0 0 0
0 0 0 0 0 0 0 0 0 0
0 0 0 0 0 0 0 0 0 0
0 0 0 0 0 0 0 0 0 0
0 0 0 0 0 0 0 0 0 0
0 0 0 0 0 0 0 0 0 0
0 0 0 0 0 0 0 0 0 0
0 0 0 0 0 0 0 0 0 0
0 0 0 0 0 0 0 0 0 0
0 0 0 0 0 0 0 0 0 0
0 0 0 0 0 0 0 0 0 0
0 0 0 0 0 0 0 0 0 0
0 0 0 0 0 0 0 0 0 0
0 0 0 0 0 0 0 0 0 0
0 0 0 0 0 0 0 0 0 0
0 0 0 0 0 0 0 0 0 0
0 0 0 0 0 0 0 0 0 0
0 0 0 0 0 0 0 0 0 0
0 0 0 0 0 0 0 0 0 0
0 0 0 0 0 0 0 0 0 0
0 0 0 0 0 0 0 0 0 0
0 0 0 0 0 0 0 0 0 0
0 0 0 0 0 0 0 0 0 0
0 0 0 0 0 0 0 0 0 0
0 0 0 0 0 0 0 0 0 0
0 0 0 0 0 0 0 0 0 0
0 0 0 0 0 0 0 0 0 0
0 0 0 0 0 0 0 0 0 0
0 0 0 0 0 0 0 0 0 0
0 0 0 0 0 0 0 0 0 0
0 0 0 0 0 0 0 0 0 0
0 0 0 0 0 0 0 0 0 0
0 0 0 0 0 0 0 0 0 0
0 0 0 0 0 0 0 0 0 0
0 0 0 0 0 0 0 0 0 0
0 0 0 0 0 0 0 0 0 0
0 0 0 0 0 0 0 0 0 0
0 0 0 0 0 0 0 0 0 0
0 0 0 0 0 0 0 0 0 0
0 0 0 0 0 0 0 0 0 0
0 0 0 0 0 0 0 0 0 0
0 0 0 0 0 0 0 0 0 0
0 0 0 0 0 0 0 0 0 0
0 0 0 0 0 0 0 0 0 0
0 0 0 0 0 0 0 0 0 0
0 0 0 0 0 0 0 0 0 0
0 0 0 0 0 0 0 0 0 0
0 0 0 0 0 0 0 0 0 0
0 0 0 0 0 0 0 0 0 0
0 0 0 0 0 0 0 0 0 0
0 0 0 0 0 0 0 0 0 0
0 0 0 0 0 0 0 0 0 0
0 0 0 0 0 0 0 0 0 0
0 0 0 0 0 0 0 0 0 0
0 0 0 0 0 0 0 0 0 0
0 0 0 0 0 0 0 0 0 0
0 0 0 0 0 0 0 0 0 0
0 0 0 0 0 0 0 0 0 0
0 0 0 0 0 0 0 0 0 0
0 0 0 0 0 0 0 0 0 0
0 0 0 0 0 0 0 0 0 0
0 0 0 0 0 0 0 0 0 0
0 0 0 0 0 0 0 0 0 0
0 0 0 0 0 0 0 0 0 0
0 0 0 0 0 0 0 0 0 0
0 0 0 0 0 0 0 0 0 0
0 0 0 0 0 0 0 0 0 0
0 0 0 0 0 0 0 0 0 0
0 0 0 0 0 0 0 0 0 0
0 0 0 0 0 0 0 0 0 0
0 0 0 0 0 0 0 0 0 0
0 0 0 0 0 0 0 0 0 0
0 0 0 0 0 0 0 0 0 0
0 0 0 0 0 0 0 0 0 0
0 0 0 0 0 0 0 0 0 0
0 0 0 0 0 0 0 0 0 0
0 0 0 0 0 0 0 0 0 0
0 0 0 0 0 0 0 0 0 0
0 0 0 0 0 0 0 0 0 0
0 0 0 0 0 0 0 0 0 0
0 0 0 0 0 0 0 0 0 0
0 0 0 0 0 0 0 0 0 0
0 0 0 0 0 0 0 0 0 0
0 0 0 0 0 0 0 0 0 0
0 0 0 0 0 0 0 0 0 0
0 0 0 0 0 0 0 0 0 0
0 0 0 0 0 0 0 0 0 0
0 0 0 0 0 0 0 0 0 0
0 0 0 0 0 0 0 0 0 0
0 0 0 0 0 0 0 0 0 0
0 0 0 0 0 0 0 0 0 0
0 0 0 0 0 0 0 0 0 0
0 0 0 0 0 0 0 0 0 0
0 0 0 0 0 0 0 0 0 0
0 0 0 0 0 0 0 0 0 0
0 0 0 0 0 0 0 0 0 0
0 0 0 0 0 0 0 0 0 0
0 0 0 0 0 0 0 0 0 0
0 0 0 0 0 0 0 0 0 0
0 0 0 0 0 0 0 0 0 0
0 0 0 0 0 0 0 0 0 0
0 0 0 0 0 0 0 0 0 0
0 0 0 0 0 0 0 0 0 0
0 0 0 0 0 0 0 0 0 0
0 0 0 0 0 0 0 0 0 0
0 0 0 0 0 0 0 0 0 0
0 0 0 0 0 0 0 0 0 0
0 0 0 0 0 0 0 0 0 0
0 0 0 0 0 0 0 0 0 0
0 0 0 0 0 0 0 0 0 0
0 0 0 0 0 0 0 0 0 0
0 0 0 0 0 0 0 0 0 0
0 0 0 0 0 0 0 0 0 0
0 0 0 0 0 0 0 0 0 0
0 0 0 0 0 0 0 0 0 0
0 0 0 0 0 0 0 0 0 0
0 0 0 0 0 0 0 0 0 0
0 0 0 0 0 0 0 0 0 0
0 0 0 0 0 0 0 0 0 0
0 0 0 0 0 0 0 0 0 0
0 0 0 0 0 0 0 0 0 0
0 0 0 0 0 0 0 0 0 0
0 0 0 0 0 0 0 0 0 0
0 0 0 0 0 0 0 0 0 0
0 0 0 0 0 0 0 0 0 0
0 0 0 0 0 0 0 0 0 0
0 0 0 0 0 0 0 0 0 0
0 0 0 0 0 0 0 0 0 0
0 0 0 0 0 0 0 0 0 0
0 0 0 0 0 0 0 0 0 0
0 0 0 0 0 0 0 0 0 0
0 0 0 0 0 0 0 0 0 0
0 0 0 0 0 0 0 0 0 0
0 0 0 0 0 0 0 0 0 0
0 0 0 0 0 0 0 0 0 0
0 0 0 0 0 0 0 0 0 0
0 0 0 0 0 0 0 0 0 0
0 0 0 0 0 0 0 0 0 0
0 0 0 0 0 0 0 0 0 0
0 0 0 0 0 0 0 0 0 0
0 0 0 0 0 0 0 0 0 0
0 0 0 0 0 0 0 0 0 0
0 0 0 0 0 0 0 0 0 0
0 0 0 0 0 0 0 0 0 0
0 0 0 0 0 0 0 0 0 0
0 0 0 0 0 0 0 0 0 0
0 0 0 0 0 0 0 0 0 0
0 0 0 0 0 0 0 0 0 0
0 0 0 0 0 0 0 0 0 0
0 0 0 0 0 0 0 0 0 0
0 0 0 0 0 0 0 0 0 0
0 0 0 0 0 0 0 0 0 0
0 0 0 0 0 0 0 0 0 0
0 0 0 0 0 0 0 0 0 0
0 0 0 0 0 0 0 0 0 0
0 0 0 0 0 0 0 0 0 0
0 0 0 0 0 0 0 0 0 0
0 0 0 0 0 0 0 0 0 0
0 0 0 0 0 0 0 0 0 0
0 0 0 0 0 0 0 0 0 0
0 0 0 0 0 0 0 0 0 0
0 0 0 0 0 0 0 0 0 0
0 0 0 0 0 0 0 0 0 0
0 0 0 0 0 0 0 0 0 0
0 0 0 0 0 0 0 0 0 0
0 0 0 0 0 0 0 0 0 0
0 0 0 0 0 0 0 0 0 0
0 0 0 0 0 0 0 0 0 0
0 0 0 0 0 0 0 0 0 0
0 0 0 0 0 0 0 0 0 0
0 0 0 0 0 0 0 0 0 0
0 0 0 0 0 0 0 0 0 0
0 0 0 0 0 0 0 0 0 0
0 0 0 0 0 0 0 0 0 0
0 0 0 0 0 0 0 0 0 0
0 0 0 0 0 0 0 0 0 0
0 0 0 0 0 0 0 0 0 0
0 0 0 0 0 0 0 0 0 0
0 0 0 0 0 0 0 0 0 0
0 0 0 0 0 0 0 0 0 0
0 0 0 0 0 0 0 0 0 0
0 0 0 0 0 0 0 0 0 0
0 0 0 0 0 0 0 0 0 0
0 0 0 0 0 0 0 0 0 0
0 0 0 0 0 0 0 0 0 0
0 0 0 0 0 0 0 0 0 0
0 0 0 0 0 0 0 0 0 0
0 0 0 0 0 0 0 0 0 0
0 0 0 0 0 0 0 0 0 0
0 0 0 0 0 0 0 0 0 0
0 0 0 0 0 0 0 0 0 0
0 0 0 0 0 0 0 0 0 0
0 0 0 0 0 0 0 0 0 0
0 0 0 0 0 0 0 0 0 0
0 0 0 0 0 0 0 0 0 0
0 0 0 0 0 0 0 0 0 0
0 0 0 0 0 0 0 0 0 0
0 0 0 0 0 0 0 0 0 0
0 0 0 0 0 0 0 0 0 0
0 0 0 0 0 0 0 0 0 0
0 0 0 0 0 0 0 0 0 0
0 0 0 0 0 0 0 0 0 0
0 0 0 0 0 0 0 0 0 0
0 0 0 0 0 0 0 0 0 0
0 0 0 0 0 0 0 0 0 0
0 0 0 0 0 0 0 0 0 0
0 0 0 0 0 0 0 0 0 0
0 0 0 0 0 0 0 0 0 0
0 0 0 0 0 0 0 0 0 0
0 0 0 0 0 0 0 0 0 0
0 0 0 0 0 0 0 0 0 
XCH3OHfuel 1 2640 float
0.833354 0.833329 0.83313 0.832868 0.832604 0.832333 0.832065 0.831801 0.831546 0.831303 0.83107
0.830854 0.83065 0.830457 0.830276 0.830101 0.829939 0.829779 0.829611 0.829421 0.829146
0.82868 0.833409 0.833383 0.833184 0.832922 0.832658 0.832387 0.832119 0.831854 0.831599
0.831356 0.831122 0.830907 0.830702 0.830509 0.830327 0.830153 0.82999 0.829831 0.829662
0.829473 0.829198 0.828731 0.833461 0.833436 0.833236 0.832974 0.832709 0.832439 0.83217
0.831905 0.831649 0.831406 0.831173 0.830957 0.830752 0.830559 0.830377 0.830202 0.83004
0.82988 0.829711 0.829522 0.829247 0.828781 0.833512 0.833486 0.833286 0.833024 0.832759
0.832489 0.832219 0.831954 0.831698 0.831455 0.831221 0.831005 0.8308 0.830606 0.830424
0.83025 0.830087 0.829927 0.829758 0.829569 0.829295 0.828829 0.833559 0.833534 0.833334
0.833071 0.832806 0.832536 0.832266 0.832001 0.831744 0.831501 0.831267 0.83105 0.830845
0.830652 0.830469 0.830295 0.830131 0.829971 0.829803 0.829613 0.82934 0.828873 0.833604
0.833579 0.833379 0.833116 0.832851 0.83258 0.83231 0.832044 0.831788 0.831544 0.831311
0.831093 0.830887 0.830694 0.830511 0.830337 0.830173 0.830013 0.829844 0.829655 0.829382
0.828916 0.833645 0.833621 0.833421 0.833157 0.832892 0.832622 0.832351 0.832085 0.831828
0.831584 0.831351 0.831133 0.830927 0.830733 0.830551 0.830376 0.830212 0.830052 0.829883
0.829694 0.829422 0.828955 0.833682 0.833659 0.833459 0.833196 0.83293 0.83266 0.832389
0.832123 0.831866 0.831621 0.831388 0.831169 0.830964 0.83077 0.830587 0.830412 0.830248
0.830088 0.829919 0.82973 0.829458 0.828991 0.833716 0.833694 0.833494 0.83323 0.832965
0.832694 0.832423 0.832157 0.8319 0.831655 0.831421 0.831203 0.830997 0.830803 0.83062
0.830446 0.830281 0.830121 0.829952 0.829763 0.829492 0.829025 0.833746 0.833726 0.833526
0.833261 0.832996 0.832725 0.832454 0.832187 0.83193 0.831685 0.831452 0.831233 0.831027
0.830833 0.83065 0.830476 0.830311 0.830151 0.829982 0.829793 0.829522 0.829054 0.833772
0.833753 0.833554 0.833289 0.833023 0.832753 0.832481 0.832214 0.831957 0.831712 0.831479
0.83126 0.831054 0.83086 0.830677 0.830503 0.830338 0.830177 0.830009 0.829819 0.829548
0.829081 0.833794 0.833777 0.833578 0.833313 0.833047 0.832776 0.832505 0.832238 0.831981
0.831736 0.831503 0.831284 0.831078 0.830883 0.830701 0.830526 0.830362 0.830201 0.830033
0.829843 0.829572 0.829104 0.833813 0.833797 0.833598 0.833333 0.833067 0.832797 0.832525
0.832258 0.832001 0.831756 0.831523 0.831304 0.831098 0.830904 0.830721 0.830547 0.830382
0.830222 0.830053 0.829863 0.829592 0.829124 0.833828 0.833813 0.833615 0.83335 0.833084
0.832813 0.832542 0.832275 0.832018 0.831773 0.83154 0.831321 0.831115 0.830921 0.830738
0.830564 0.8304 0.830239 0.830071 0.829881 0.829609 0.829141 0.83384 0.833827 0.833629
0.833363 0.833097 0.832827 0.832555 0.832288 0.832031 0.831787 0.831554 0.831335 0.831129
0.830935 0.830753 0.830579 0.830414 0.830254 0.830085 0.829895 0.829623 0.829154 0.83385
0.833837 0.833639 0.833374 0.833107 0.832837 0.832565 0.832299 0.832042 0.831797 0.831565
0.831346 0.831141 0.830947 0.830764 0.83059 0.830426 0.830265 0.830097 0.829907 0.829634
0.829165 0.833856 0.833844 0.833647 0.833381 0.833115 0.832844 0.832573 0.832306 0.83205
0.831805 0.831573 0.831355 0.831149 0.830955 0.830773 0.830599 0.830435 0.830274 0.830106
0.829916 0.829643 0.829173 0.833861 0.833849 0.833652 0.833386 0.83312 0.832849 0.832578
0.832312 0.832055 0.831811 0.831579 0.831361 0.831155 0.830961 0.830779 0.830606 0.830441
0.830281 0.830112 0.829922 0.829649 0.829179 0.833864 0.833852 0.833655 0.833389 0.833123
0.832852 0.832581 0.832315 0.832058 0.831814 0.831582 0.831364 0.831159 0.830965 0.830783
0.83061 0.830446 0.830285 0.830116 0.829926 0.829652 0.829182 0.833865 0.833853 0.833656
0.83339 0.833124 0.832853 0.832582 0.832316 0.83206 0.831816 0.831584 0.831366 0.83116
0.830967 0.830785 0.830612 0.830447 0.830287 0.830118 0.829928 0.829654 0.829184 0.833363
0.833332 0.833133 0.832871 0.832603 0.832337 0.832068 0.831804 0.831549 0.831303 0.831074
0.830857 0.830653 0.83046 0.830275 0.830105 0.829942 0.829782 0.829614 0.829421 0.829151
0.828684 0.833418 0.833387 0.833187 0.832925 0.832657 0.832391 0.832121 0.831857 0.831601
0.831355 0.831126 0.830909 0.830705 0.830512 0.830327 0.830157 0.829994 0.829834 0.829665
0.829472 0.829203 0.828735 0.83347 0.833439 0.833239 0.832977 0.832709 0.832442 0.832173
0.831908 0.831652 0.831406 0.831177 0.83096 0.830755 0.830562 0.830377 0.830206 0.830043
0.829883 0.829714 0.829522 0.829252 0.828785 0.83352 0.83349 0.833289 0.833027 0.832759
0.832492 0.832222 0.831957 0.831701 0.831455 0.831225 0.831008 0.830803 0.830609 0.830425
0.830254 0.83009 0.82993 0.829761 0.829569 0.8293 0.828832 0.833567 0.833538 0.833337
0.833074 0.832807 0.832539 0.832269 0.832003 0.831747 0.831501 0.831271 0.831053 0.830848
0.830654 0.83047 0.830298 0.830135 0.829974 0.829806 0.829614 0.829344 0.828877 0.833611
0.833583 0.833382 0.833119 0.832851 0.832583 0.832313 0.832047 0.831791 0.831544 0.831314
0.831096 0.83089 0.830697 0.830512 0.83034 0.830176 0.830016 0.829848 0.829656 0.829386
0.82892 0.833652 0.833625 0.833424 0.83316 0.832893 0.832624 0.832354 0.832088 0.831831
0.831585 0.831354 0.831136 0.83093 0.830736 0.830551 0.830379 0.830215 0.830055 0.829886
0.829695 0.829426 0.828959 0.83369 0.833663 0.833462 0.833198 0.832931 0.832662 0.832392
0.832125 0.831868 0.831622 0.831391 0.831172 0.830966 0.830772 0.830588 0.830415 0.830251
0.830091 0.829922 0.829731 0.829462 0.828995 0.833723 0.833698 0.833498 0.833233 0.832966
0.832697 0.832426 0.832159 0.831902 0.831656 0.831424 0.831206 0.831 0.830806 0.830621
0.830449 0.830284 0.830124 0.829955 0.829764 0.829495 0.829028 0.833753 0.833729 0.833529
0.833264 0.832997 0.832728 0.832457 0.83219 0.831933 0.831686 0.831455 0.831236 0.83103
0.830836 0.830651 0.830479 0.830314 0.830154 0.829985 0.829794 0.829525 0.829058 0.833779
0.833757 0.833557 0.833292 0.833024 0.832755 0.832484 0.832217 0.83196 0.831713 0.831482
0.831263 0.831057 0.830863 0.830678 0.830505 0.830341 0.83018 0.830012 0.829821 0.829552
0.829085 0.833801 0.833781 0.833581 0.833316 0.833048 0.832779 0.832507 0.832241 0.831983
0.831737 0.831505 0.831287 0.83108 0.830886 0.830702 0.830529 0.830365 0.830204 0.830036
0.829844 0.829575 0.829108 0.833819 0.833801 0.833601 0.833336 0.833068 0.832799 0.832527
0.832261 0.832003 0.831757 0.831525 0.831307 0.831101 0.830907 0.830722 0.83055 0.830385
0.830225 0.830056 0.829865 0.829596 0.829128 0.833835 0.833817 0.833618 0.833353 0.833085
0.832816 0.832544 0.832277 0.83202 0.831774 0.831542 0.831324 0.831118 0.830924 0.83074
0.830567 0.830403 0.830242 0.830073 0.829882 0.829612 0.829145 0.833847 0.83383 0.833632
0.833366 0.833098 0.832829 0.832557 0.832291 0.832034 0.831788 0.831556 0.831338 0.831132
0.830938 0.830754 0.830581 0.830417 0.830257 0.830088 0.829897 0.829627 0.829158 0.833856
0.833841 0.833642 0.833377 0.833109 0.832839 0.832568 0.832301 0.832044 0.831799 0.831567
0.831349 0.831143 0.830949 0.830765 0.830593 0.830429 0.830268 0.8301 0.829908 0.829638
0.829169 0.833862 0.833848 0.83365 0.833384 0.833116 0.832847 0.832575 0.832309 0.832052
0.831807 0.831575 0.831357 0.831152 0.830958 0.830774 0.830602 0.830438 0.830277 0.830109
0.829917 0.829646 0.829177 0.833867 0.833853 0.833655 0.833389 0.833121 0.832852 0.832581
0.832314 0.832057 0.831812 0.831581 0.831363 0.831158 0.830964 0.830781 0.830608 0.830444
0.830284 0.830115 0.829924 0.829652 0.829183 0.83387 0.833856 0.833658 0.833392 0.833124
0.832855 0.832583 0.832317 0.832061 0.831815 0.831584 0.831367 0.831161 0.830968 0.830784
0.830612 0.830448 0.830288 0.830119 0.829928 0.829655 0.829186 0.833871 0.833857 0.833659
0.833393 0.833125 0.832856 0.832585 0.832318 0.832062 0.831817 0.831586 0.831368 0.831163
0.830969 0.830786 0.830614 0.83045 0.83029 0.830121 0.829929 0.829657 0.829187 0.833354
0.83401 0.834425 0.834455 0.834444 0.834416 0.833997 0.834028 0.834419 0.834444 0.834444
0.834419 0.834015 0.834025 0.83442 0.834445 0.834444 0.83442 0.83402 0.834023 0.83442
0.834444 0.834444 0.83442 0.834023 0.83402 0.834419 0.834444 0.834444 0.83442 0.834023
0.834014 0.834417 0.834443 0.834444 0.83442 0.834029 0.833998 0.834416 0.834445 0.834458
0.834428 0.834015 0.833363 0.833409 0.834067 0.834484 0.834513 0.834502 0.834474 0.834053
0.834084 0.834478 0.834502 0.834502 0.834477 0.834071 0.83408 0.834478 0.834503 0.834502
0.834478 0.834076 0.834079 0.834478 0.834502 0.834502 0.834478 0.834079 0.834075 0.834477
0.834502 0.834502 0.834478 0.834079 0.834069 0.834476 0.834501 0.834502 0.834478 0.834085
0.834054 0.834475 0.834503 0.834516 0.834487 0.834072 0.833418 0.833461 0.834122 0.834543
0.834571 0.83456 0.834533 0.834106 0.834138 0.834536 0.83456 0.834559 0.834535 0.834125
0.834134 0.834537 0.83456 0.83456 0.834536 0.834129 0.834132 0.834537 0.834559 0.834559
0.834537 0.834132 0.834129 0.834536 0.834559 0.83456 0.834537 0.834132 0.834123 0.834534
0.834558 0.83456 0.834537 0.834139 0.834107 0.834533 0.834561 0.834574 0.834545 0.834127
0.83347 0.833512 0.834175 0.8346 0.834628 0.834616 0.834591 0.834158 0.83419 0.834594
0.834616 0.834616 0.834593 0.834176 0.834185 0.834594 0.834616 0.834616 0.834594 0.834181
0.834184 0.834594 0.834616 0.834616 0.834594 0.834184 0.83418 0.834593 0.834616 0.834616