# vtk DataFile Version 2.0
fuelInlet
ASCII
DATASET POLYDATA
POINTS 1085 float
0.0039544 0.001 0 0.0039544 0.0015 0 0.0040044 0.0015 0 0.0040044 0.001
0 0.0039544 0.002 0 0.0040044 0.002 0 0.0039544 0.0025 0
0.0040044 0.0025 0 0.0039544 0.003 0 0.0040044 0.003 0 0.0039544
0.004 0 0.0039544 0.0045 0 0.0040044 0.0045 0 0.0040044 0.004
0 0.0039544 0.005 0 0.0040044 0.005 0 0.0039544 0.0055 0
0.0040044 0.0055 0 0.0039544 0.006 0 0.0040044 0.006 0 0.0039544
0.007 0 0.0039544 0.0075 0 0.0040044 0.0075 0 0.0040044 0.007
0 0.0039544 0.008 0 0.0040044 0.008 0 0.0039544 0.0085 0
0.0040044 0.0085 0 0.0039544 0.009 0 0.0040044 0.009 0 0.0039544
0.01 0 0.0039544 0.0105 0 0.0040044 0.0105 0 0.0040044 0.01
0 0.0039544 0.011 0 0.0040044 0.011 0 0.0039544 0.0115 0
0.0040044 0.0115 0 0.0039544 0.012 0 0.0040044 0.012 0 0.0039544
0.013 0 0.0039544 0.0135 0 0.0040044 0.0135 0 0.0040044 0.013
0 0.0039544 0.014 0 0.0040044 0.014 0 0.0039544 0.0145 0
0.0040044 0.0145 0 0.0039544 0.015 0 0.0040044 0.015 0 0.0039544
0.016 0 0.0039544 0.0165 0 0.0040044 0.0165 0 0.0040044 0.016
0 0.0039544 0.017 0 0.0040044 0.017 0 0.0039544 0.0175 0
0.0040044 0.0175 0 0.0039544 0.018 0 0.0040044 0.018 0 0.0039544
0.019 0 0.0039544 0.0195 0 0.0040044 0.0195 0 0.0040044 0.019
0 0.0039544 0.02 0 0.0040044 0.02 0 0.0039544 0.0205 0
0.0040044 0.0205 0 0.0039544 0.021 0 0.0040044 0.021 0 0.0040544
0.0015 0 0.0040544 0.001 0 0.0040544 0.002 0 0.0040544 0.0025
0 0.0040544 0.003 0 0.0040544 0.0045 0 0.0040544 0.004 0
0.0040544 0.005 0 0.0040544 0.0055 0 0.0040544 0.006 0 0.0040544
0.0075 0 0.0040544 0.007 0 0.0040544 0.008 0 0.0040544 0.0085
0 0.0040544 0.009 0 0.0040544 0.0105 0 0.0040544 0.01 0
0.0040544 0.011 0 0.0040544 0.0115 0 0.0040544 0.012 0 0.0040544
0.0135 0 0.0040544 0.013 0 0.0040544 0.014 0 0.0040544 0.0145
0 0.0040544 0.015 0 0.0040544 0.0165 0 0.0040544 0.016 0
0.0040544 0.017 0 0.0040544 0.0175 0 0.0040544 0.018 0 0.0040544
0.0195 0 0.0040544 0.019 0 0.0040544 0.02 0 0.0040544 0.0205
0 0.0040544 0.021 0 0.0041044 0.0015 0 0.0041044 0.001 0
0.0041044 0.002 0 0.0041044 0.0025 0 0.0041044 0.003 0 0.0041044
0.0045 0 0.0041044 0.004 0 0.0041044 0.005 0 0.0041044 0.0055
0 0.0041044 0.006 0 0.0041044 0.0075 0 0.0041044 0.007 0
0.0041044 0.008 0 0.0041044 0.0085 0 0.0041044 0.009 0 0.0041044
0.0105 0 0.0041044 0.01 0 0.0041044 0.011 0 0.0041044 0.0115
0 0.0041044 0.012 0 0.0041044 0.0135 0 0.0041044 0.013 0
0.0041044 0.014 0 0.0041044 0.0145 0 0.0041044 0.015 0 0.0041044
0.0165 0 0.0041044 0.016 0 0.0041044 0.017 0 0.0041044 0.0175
0 0.0041044 0.018 0 0.0041044 0.0195 0 0.0041044 0.019 0
0.0041044 0.02 0 0.0041044 0.0205 0 0.0041044 0.021 0 0.0041544
0.0015 0 0.0041544 0.001 0 0.0041544 0.002 0 0.0041544 0.0025
0 0.0041544 0.003 0 0.0041544 0.0045 0 0.0041544 0.004 0
0.0041544 0.005 0 0.0041544 0.0055 0 0.0041544 0.006 0 0.0041544
0.0075 0 0.0041544 0.007 0 0.0041544 0.008 0 0.0041544 0.0085
0 0.0041544 0.009 0 0.0041544 0.0105 0 0.0041544 0.01 0
0.0041544 0.011 0 0.0041544 0.0115 0 0.0041544 0.012 0 0.0041544
0.0135 0 0.0041544 0.013 0 0.0041544 0.014 0 0.0041544 0.0145
0 0.0041544 0.015 0 0.0041544 0.0165 0 0.0041544 0.016 0
0.0041544 0.017 0 0.0041544 0.0175 0 0.0041544 0.018 0 0.0041544
0.0195 0 0.0041544 0.019 0 0.0041544 0.02 0 0.0041544 0.0205
0 0.0041544 0.021 0 0.0042044 0.0015 0 0.0042044 0.001 0
0.0042044 0.002 0 0.0042044 0.0025 0 0.0042044 0.003 0 0.0042044
0.0045 0 0.0042044 0.004 0 0.0042044 0.005 0 0.0042044 0.0055
0 0.0042044 0.006 0 0.0042044 0.0075 0 0.0042044 0.007 0
0.0042044 0.008 0 0.0042044 0.0085 0 0.0042044 0.009 0 0.0042044
0.0105 0 0.0042044 0.01 0 0.0042044 0.011 0 0.0042044 0.0115
0 0.0042044 0.012 0 0.0042044 0.0135 0 0.0042044 0.013 0
0.0042044 0.014 0 0.0042044 0.0145 0 0.0042044 0.015 0 0.0042044
0.0165 0 0.0042044 0.016 0 0.0042044 0.017 0 0.0042044 0.0175
0 0.0042044 0.018 0 0.0042044 0.0195 0 0.0042044 0.019 0
0.0042044 0.02 0 0.0042044 0.0205 0 0.0042044 0.021 0 0.0042544
0.0015 0 0.0042544 0.001 0 0.0042544 0.002 0 0.0042544 0.0025
0 0.0042544 0.003 0 0.0042544 0.0045 0 0.0042544 0.004 0
0.0042544 0.005 0 0.0042544 0.0055 0 0.0042544 0.006 0 0.0042544
0.0075 0 0.0042544 0.007 0 0.0042544 0.008 0 0.0042544 0.0085
0 0.0042544 0.009 0 0.0042544 0.0105 0 0.0042544 0.01 0
0.0042544 0.011 0 0.0042544 0.0115 0 0.0042544 0.012 0 0.0042544
0.0135 0 0.0042544 0.013 0 0.0042544 0.014 0 0.0042544 0.0145
0 0.0042544 0.015 0 0.0042544 0.0165 0 0.0042544 0.016 0
0.0042544 0.017 0 0.0042544 0.0175 0 0.0042544 0.018 0 0.0042544
0.0195 0 0.0042544 0.019 0 0.0042544 0.02 0 0.0042544 0.0205
0 0.0042544 0.021 0 0.0043044 0.0015 0 0.0043044 0.001 0
0.0043044 0.002 0 0.0043044 0.0025 0 0.0043044 0.003 0 0.0043044
0.0045 0 0.0043044 0.004 0 0.0043044 0.005 0 0.0043044 0.0055
0 0.0043044 0.006 0 0.0043044 0.0075 0 0.0043044 0.007 0
0.0043044 0.008 0 0.0043044 0.0085 0 0.0043044 0.009 0 0.0043044
0.0105 0 0.0043044 0.01 0 0.0043044 0.011 0 0.0043044 0.0115
0 0.0043044 0.012 0 0.0043044 0.0135 0 0.0043044 0.013 0
0.0043044 0.014 0 0.0043044 0.0145 0 0.0043044 0.015 0 0.0043044
0.0165 0 0.0043044 0.016 0 0.0043044 0.017 0 0.0043044 0.0175
0 0.0043044 0.018 0 0.0043044 0.0195 0 0.0043044 0.019 0
0.0043044 0.02 0 0.0043044 0.0205 0 0.0043044 0.021 0 0.0043544
0.0015 0 0.0043544 0.001 0 0.0043544 0.002 0 0.0043544 0.0025
0 0.0043544 0.003 0 0.0043544 0.0045 0 0.0043544 0.004 0
0.0043544 0.005 0 0.0043544 0.0055 0 0.0043544 0.006 0 0.0043544
0.0075 0 0.0043544 0.007 0 0.0043544 0.008 0 0.0043544 0.0085
0 0.0043544 0.009 0 0.0043544 0.0105 0 0.0043544 0.01 0
0.0043544 0.011 0 0.0043544 0.0115 0 0.0043544 0.012 0 0.0043544
0.0135 0 0.0043544 0.013 0 0.0043544 0.014 0 0.0043544 0.0145
0 0.0043544 0.015 0 0.0043544 0.0165 0 0.0043544 0.016 0
0.0043544 0.017 0 0.0043544 0.0175 0 0.0043544 0.018 0 0.0043544
0.0195 0 0.0043544 0.019 0 0.0043544 0.02 0 0.0043544 0.0205
0 0.0043544 0.021 0 0.0044044 0.0015 0 0.0044044 0.001 0
0.0044044 0.002 0 0.0044044 0.0025 0 0.0044044 0.003 0 0.0044044
0.0045 0 0.0044044 0.004 0 0.0044044 0.005 0 0.0044044 0.0055
0 0.0044044 0.006 0 0.0044044 0.0075 0 0.0044044 0.007 0
0.0044044 0.008 0 0.0044044 0.0085 0 0.0044044 0.009 0 0.0044044
0.0105 0 0.0044044 0.01 0 0.0044044 0.011 0 0.0044044 0.0115
0 0.0044044 0.012 0 0.0044044 0.0135 0 0.0044044 0.013 0
0.0044044 0.014 0 0.0044044 0.0145 0 0.0044044 0.015 0 0.0044044
0.0165 0 0.0044044 0.016 0 0.0044044 0.017 0 0.0044044 0.0175
0 0.0044044 0.018 0 0.0044044 0.0195 0 0.0044044 0.019 0
0.0044044 0.02 0 0.0044044 0.0205 0 0.0044044 0.021 0 0.0044544
0.0015 0 0.0044544 0.001 0 0.0044544 0.002 0 0.0044544 0.0025
0 0.0044544 0.003 0 0.0044544 0.0045 0 0.0044544 0.004 0
0.0044544 0.005 0 0.0044544 0.0055 0 0.0044544 0.006 0 0.0044544
0.0075 0 0.0044544 0.007 0 0.0044544 0.008 0 0.0044544 0.0085
0 0.0044544 0.009 0 0.0044544 0.0105 0 0.0044544 0.01 0
0.0044544 0.011 0 0.0044544 0.0115 0 0.0044544 0.012 0 0.0044544
0.0135 0 0.0044544 0.013 0 0.0044544 0.014 0 0.0044544 0.0145
0 0.0044544 0.015 0 0.0044544 0.0165 0 0.0044544 0.016 0
0.0044544 0.017 0 0.0044544 0.0175 0 0.0044544 0.018 0 0.0044544
0.0195 0 0.0044544 0.019 0 0.0044544 0.02 0 0.0044544 0.0205
0 0.0044544 0.021 0 0.0045044 0.0015 0 0.0045044 0.001 0
0.0045044 0.002 0 0.0045044 0.0025 0 0.0045044 0.003 0 0.0045044
0.0045 0 0.0045044 0.004 0 0.0045044 0.005 0 0.0045044 0.0055
0 0.0045044 0.006 0 0.0045044 0.0075 0 0.0045044 0.007 0
0.0045044 0.008 0 0.0045044 0.0085 0 0.0045044 0.009 0 0.0045044
0.0105 0 0.0045044 0.01 0 0.0045044 0.011 0 0.0045044 0.0115
0 0.0045044 0.012 0 0.0045044 0.0135 0 0.0045044 0.013 0
0.0045044 0.014 0 0.0045044 0.0145 0 0.0045044 0.015 0 0.0045044
0.0165 0 0.0045044 0.016 0 0.0045044 0.017 0 0.0045044 0.0175
0 0.0045044 0.018 0 0.0045044 0.0195 0 0.0045044 0.019 0
0.0045044 0.02 0 0.0045044 0.0205 0 0.0045044 0.021 0 0.0045544
0.0015 0 0.0045544 0.001 0 0.0045544 0.002 0 0.0045544 0.0025
0 0.0045544 0.003 0 0.0045544 0.0045 0 0.0045544 0.004 0
0.0045544 0.005 0 0.0045544 0.0055 0 0.0045544 0.006 0 0.0045544
0.0075 0 0.0045544 0.007 0 0.0045544 0.008 0 0.0045544 0.0085
0 0.0045544 0.009 0 0.0045544 0.0105 0 0.0045544 0.01 0
0.0045544 0.011 0 0.0045544 0.0115 0 0.0045544 0.012 0 0.0045544
0.0135 0 0.0045544 0.013 0 0.0045544 0.014 0 0.0045544 0.0145
0 0.0045544 0.015 0 0.0045544 0.0165 0 0.0045544 0.016 0
0.0045544 0.017 0 0.0045544 0.0175 0 0.0045544 0.018 0 0.0045544
0.0195 0 0.0045544 0.019 0 0.0045544 0.02 0 0.0045544 0.0205
0 0.0045544 0.021 0 0.0046044 0.0015 0 0.0046044 0.001 0
0.0046044 0.002 0 0.0046044 0.0025 0 0.0046044 0.003 0 0.0046044
0.0045 0 0.0046044 0.004 0 0.0046044 0.005 0 0.0046044 0.0055
0 0.0046044 0.006 0 0.0046044 0.0075 0 0.0046044 0.007 0
0.0046044 0.008 0 0.0046044 0.0085 0 0.0046044 0.009 0 0.0046044
0.0105 0 0.0046044 0.01 0 0.0046044 0.011 0 0.0046044 0.0115
0 0.0046044 0.012 0 0.0046044 0.0135 0 0.0046044 0.013 0
0.0046044 0.014 0 0.0046044 0.0145 0 0.0046044 0.015 0 0.0046044
0.0165 0 0.0046044 0.016 0 0.0046044 0.017 0 0.0046044 0.0175
0 0.0046044 0.018 0 0.0046044 0.0195 0 0.0046044 0.019 0
0.0046044 0.02 0 0.0046044 0.0205 0 0.0046044 0.021 0 0.0046544
0.0015 0 0.0046544 0.001 0 0.0046544 0.002 0 0.0046544 0.0025
0 0.0046544 0.003 0 0.0046544 0.0045 0 0.0046544 0.004 0
0.0046544 0.005 0 0.0046544 0.0055 0 0.0046544 0.006 0 0.0046544
0.0075 0 0.0046544 0.007 0 0.0046544 0.008 0 0.0046544 0.0085
0 0.0046544 0.009 0 0.0046544 0.0105 0 0.0046544 0.01 0
0.0046544 0.011 0 0.0046544 0.0115 0 0.0046544 0.012 0 0.0046544
0.0135 0 0.0046544 0.013 0 0.0046544 0.014 0 0.0046544 0.0145
0 0.0046544 0.015 0 0.0046544 0.0165 0 0.0046544 0.016 0
0.0046544 0.017 0 0.0046544 0.0175 0 0.0046544 0.018 0 0.0046544
0.0195 0 0.0046544 0.019 0 0.0046544 0.02 0 0.0046544 0.0205
0 0.0046544 0.021 0 0.0047044 0.0015 0 0.0047044 0.001 0
0.0047044 0.002 0 0.0047044 0.0025 0 0.0047044 0.003 0 0.0047044
0.0045 0 0.0047044 0.004 0 0.0047044 0.005 0 0.0047044 0.0055
0 0.0047044 0.006 0 0.0047044 0.0075 0 0.0047044 0.007 0
0.0047044 0.008 0 0.0047044 0.0085 0 0.0047044 0.009 0 0.0047044
[...]
CELL_DATA 840
FIELD attributes 16
patchID 1 840 float
2 2 2 2 2 2 2 2 2 2 2
2 2 2 2 2 2 2 2 2 2
2 2 2 2 2 2 2 2 2 2
2 2 2 2 2 2 2 2 2 2
2 2 2 2 2 2 2 2 2 2
2 2 2 2 2 2 2 2 2 2
2 2 2 2 2 2 2 2 2 2
2 2 2 2 2 2 2 2 2 2
2 2 2 2 2 2 2 2 2 2
2 2 2 2 2 2 2 2 2 2
2 2 2 2 2 2 2 2 2 2
2 2 2 2 2 2 2 2 2 2
2 2 2 2 2 2 2 2 2 2
2 2 2 2 2 2 2 2 2 2
2 2 2 2 2 2 2 2 2 2
2 2 2 2 2 2 2 2 2 2
2 2 2 2 2 2 2 2 2 2
2 2 2 2 2 2 2 2 2 2
2 2 2 2 2 2 2 2 2 2
2 2 2 2 2 2 2 2 2 2
2 2 2 2 2 2 2 2 2 2
2 2 2 2 2 2 2 2 2 2
2 2 2 2 2 2 2 2 2 2
2 2 2 2 2 2 2 2 2 2
2 2 2 2 2 2 2 2 2 2
2 2 2 2 2 2 2 2 2 2
2 2 2 2 2 2 2 2 2 2
2 2 2 2 2 2 2 2 2 2
2 2 2 2 2 2 2 2 2 2
2 2 2 2 2 2 2 2 2 2
2 2 2 2 2 2 2 2 2 2
2 2 2 2 2 2 2 2 2 2
2 2 2 2 2 2 2 2 2 2
2 2 2 2 2 2 2 2 2 2
2 2 2 2 2 2 2 2 2 2
2 2 2 2 2 2 2 2 2 2
2 2 2 2 2 2 2 2 2 2
2 2 2 2 2 2 2 2 2 2
2 2 2 2 2 2 2 2 2 2
2 2 2 2 2 2 2 2 2 2
2 2 2 2 2 2 2 2 2 2
2 2 2 2 2 2 2 2 2 2
2 2 2 2 2 2 2 2 2 2
2 2 2 2 2 2 2 2 2 2
2 2 2 2 2 2 2 2 2 2
2 2 2 2 2 2 2 2 2 2
2 2 2 2 2 2 2 2 2 2
2 2 2 2 2 2 2 2 2 2
2 2 2 2 2 2 2 2 2 2
2 2 2 2 2 2 2 2 2 2
2 2 2 2 2 2 2 2 2 2
2 2 2 2 2 2 2 2 2 2
2 2 2 2 2 2 2 2 2 2
2 2 2 2 2 2 2 2 2 2
2 2 2 2 2 2 2 2 2 2
2 2 2 2 2 2 2 2 2 2
2 2 2 2 2 2 2 2 2 2
2 2 2 2 2 2 2 2 2 2
2 2 2 2 2 2 2 2 2 2
2 2 2 2 2 2 2 2 2 2
2 2 2 2 2 2 2 2 2 2
2 2 2 2 2 2 2 2 2 2
2 2 2 2 2 2 2 2 2 2
2 2 2 2 2 2 2 2 2 2
2 2 2 2 2 2 2 2 2 2
2 2 2 2 2 2 2 2 2 2
2 2 2 2 2 2 2 2 2 2
2 2 2 2 2 2 2 2 2 2
2 2 2 2 2 2 2 2 2 2
2 2 2 2 2 2 2 2 2 2
2 2 2 2 2 2 2 2 2 2
2 2 2 2 2 2 2 2 2 2
2 2 2 2 2 2 2 2 2 2
2 2 2 2 2 2 2 2 2 2
2 2 2 2 2 2 2 2 2 2
2 2 2 2 2 2 2 2 2 2
2 2 2 2 2 2 2 2 2 2
2 2 2 2 2 2 2 2 2 2
2 2 2 2 2 2 2 2 2 2
2 2 2 2 2 2 2 2 2 2
2 2 2 2 2 2 2 2 2 2
2 2 2 2 2 2 2 2 2 2
2 2 2 2 2 2 2 2 2 2
2 2 2 2 2 2 2 2 2 
diffH2Ofuel 1 840 float
0 0 0 0 0 0 0 0 0 0 0
0 0 0 0 0 0 0 0 0 0
0 0 0 0 0 0 0 0 0 0
0 0 0 0 0 0 0 0 0 0
0 0 0 0 0 0 0 0 0 0
0 0 0 0 0 0 0 0 0 0
0 0 0 0 0 0 0 0 0 0
0 0 0 0 0 0 0 0 0 0
0 0 0 0 0 0 0 0 0 0
0 0 0 0 0 0 0 0 0 0
0 0 0 0 0 0 0 0 0 0
0 0 0 0 0 0 0 0 0 0
0 0 0 0 0 0 0 0 0 0
0 0 0 0 0 0 0 0 0 0
0 0 0 0 0 0 0 0 0 0
0 0 0 0 0 0 0 0 0 0
0 0 0 0 0 0 0 0 0 0
0 0 0 0 0 0 0 0 0 0
0 0 0 0 0 0 0 0 0 0
0 0 0 0 0 0 0 0 0 0
0 0 0 0 0 0 0 0 0 0
0 0 0 0 0 0 0 0 0 0
0 0 0 0 0 0 0 0 0 0
0 0 0 0 0 0 0 0 0 0
0 0 0 0 0 0 0 0 0 0
0 0 0 0 0 0 0 0 0 0
0 0 0 0 0 0 0 0 0 0
0 0 0 0 0 0 0 0 0 0
0 0 0 0 0 0 0 0 0 0
0 0 0 0 0 0 0 0 0 0
0 0 0 0 0 0 0 0 0 0
0 0 0 0 0 0 0 0 0 0
0 0 0 0 0 0 0 0 0 0
0 0 0 0 0 0 0 0 0 0
0 0 0 0 0 0 0 0 0 0
0 0 0 0 0 0 0 0 0 0
0 0 0 0 0 0 0 0 0 0
0 0 0 0 0 0 0 0 0 0
0 0 0 0 0 0 0 0 0 0
0 0 0 0 0 0 0 0 0 0
0 0 0 0 0 0 0 0 0 0
0 0 0 0 0 0 0 0 0 0
0 0 0 0 0 0 0 0 0 0
0 0 0 0 0 0 0 0 0 0
0 0 0 0 0 0 0 0 0 0
0 0 0 0 0 0 0 0 0 0
0 0 0 0 0 0 0 0 0 0
0 0 0 0 0 0 0 0 0 0
0 0 0 0 0 0 0 0 0 0
0 0 0 0 0 0 0 0 0 0
0 0 0 0 0 0 0 0 0 0
0 0 0 0 0 0 0 0 0 0
0 0 0 0 0 0 0 0 0 0
0 0 0 0 0 0 0 0 0 0
0 0 0 0 0 0 0 0 0 0
0 0 0 0 0 0 0 0 0 0
0 0 0 0 0 0 0 0 0 0
0 0 0 0 0 0 0 0 0 0
0 0 0 0 0 0 0 0 0 0
0 0 0 0 0 0 0 0 0 0
0 0 0 0 0 0 0 0 0 0
0 0 0 0 0 0 0 0 0 0
0 0 0 0 0 0 0 0 0 0
0 0 0 0 0 0 0 0 0 0
0 0 0 0 0 0 0 0 0 0
0 0 0 0 0 0 0 0 0 0
0 0 0 0 0 0 0 0 0 0
0 0 0 0 0 0 0 0 0 0
0 0 0 0 0 0 0 0 0 0
0 0 0 0 0 0 0 0 0 0
0 0 0 0 0 0 0 0 0 0
0 0 0 0 0 0 0 0 0 0
0 0 0 0 0 0 0 0 0 0
0 0 0 0 0 0 0 0 0 0
0 0 0 0 0 0 0 0 0 0
0 0 0 0 0 0 0 0 0 0
0 0 0 0 0 0 0 0 0 0
0 0 0 0 0 0 0 0 0 0
0 0 0 0 0 0 0 0 0 0
0 0 0 0 0 0 0 0 0 0
0 0 0 0 0 0 0 0 0 0
0 0 0 0 0 0 0 0 0 0
0 0 0 0 0 0 0 0 0 0
0 0 0 0 0 0 0 0 0 
XCH3OHfuel 1 840 float
0.835001 0.835002 0.835002 0.835002 0.835002 0.835002 0.835002 0.835002 0.835002 0.835002 0.835002
0.835002 0.835002 0.835002 0.835002 0.835002 0.835002 0.835002 0.835002 0.835002 0.835002
0.835002 0.835002 0.835002 0.835002 0.835002 0.835002 0.835001 0.835002 0.835002 0.835002
0.835002 0.835002 0.835002 0.835002 0.835002 0.835002 0.835002 0.835002 0.835002 0.835002
0.835002 0.835002 0.835002 0.835002 0.835002 0.835002 0.835002 0.835002 0.835002 0.835002
0.835002 0.835002 0.835002 0.835002 0.835002 0.835002 0.835002 0.835002 0.835002 0.835002
0.835002 0.835002 0.835002 0.835002 0.835002 0.835002 0.835002 0.835002 0.835002 0.835002
0.835002 0.835002 0.835002 0.835002 0.835002 0.835002 0.835002 0.835002 0.835002 0.835002
0.835002 0.835002 0.835002 0.835002 0.835002 0.835002 0.835002 0.835002 0.835002 0.835002
0.835002 0.835002 0.835002 0.835002 0.835002 0.835002 0.835002 0.835002 0.835002 0.835002
0.835002 0.835002 0.835002 0.835002 0.835002 0.835002 0.835002 0.835002 0.835002 0.835002
0.835002 0.835002 0.835002 0.835002 0.835002 0.835002 0.835002 0.835002 0.835002 0.835002
0.835002 0.835002 0.835002 0.835002 0.835002 0.835002 0.835002 0.835002 0.835002 0.835002
0.835002 0.835002 0.835002 0.835002 0.835002 0.835002 0.835002 0.835002 0.835002 0.835002
0.835002 0.835002 0.835002 0.835002 0.835002 0.835002 0.835002 0.835002 0.835002 0.835002
0.835002 0.835002 0.835002 0.835002 0.835002 0.835002 0.835002 0.835002 0.835002 0.835002
0.835002 0.835002 0.835002 0.835002 0.835002 0.835002 0.835002 0.835002 0.835002 0.835002
0.835002 0.835002 0.835002 0.835002 0.835002 0.835002 0.835002 0.835002 0.835002 0.835002
0.835002 0.835002 0.835002 0.835002 0.835002 0.835002 0.835002 0.835002 0.835002 0.835002
0.835002 0.835002 0.835002 0.835002 0.835002 0.835002 0.835002 0.835002 0.835002 0.835002
0.835002 0.835002 0.835002 0.835002 0.835002 0.835002 0.835002 0.835002 0.835002 0.835002
0.835002 0.835002 0.835002 0.835002 0.835002 0.835002 0.835002 0.835002 0.835002 0.835002
0.835002 0.835002 0.835002 0.835002 0.835002 0.835002 0.835002 0.835002 0.835002 0.835002
0.835002 0.835002 0.835002 0.835002 0.835002 0.835002 0.835002 0.835002 0.835002 0.835002
0.835002 0.835002 0.835002 0.835002 0.835002 0.835002 0.835002 0.835002 0.835002 0.835002
0.835002 0.835002 0.835002 0.835002 0.835002 0.835002 0.835002 0.835002 0.835002 0.835002
0.835002 0.835002 0.835002 0.835002 0.835002 0.835002 0.835002 0.835002 0.835002 0.835002
0.835002 0.835002 0.835002 0.835002 0.835002 0.835002 0.835002 0.835002 0.835002 0.835002
0.835002 0.835002 0.835002 0.835002 0.835002 0.835002 0.835002 0.835002 0.835002 0.835002
0.835002 0.835002 0.835002 0.835002 0.835002 0.835002 0.835002 0.835002 0.835002 0.835002
0.835002 0.835002 0.835002 0.835002 0.835002 0.835002 0.835002 0.835002 0.835002 0.835002
0.835002 0.835002 0.835002 0.835002 0.835002 0.835002 0.835002 0.835002 0.835002 0.835002
0.835002 0.835002 0.835002 0.835002 0.835002 0.835002 0.835002 0.835002 0.835002 0.835002
0.835002 0.835002 0.835002 0.835002 0.835002 0.835002 0.835002 0.835002 0.835002 0.835002
0.835002 0.835002 0.835002 0.835002 0.835002 0.835002 0.835002 0.835002 0.835002 0.835002
0.835002 0.835002 0.835002 0.835002 0.835002 0.835002 0.835002 0.835002 0.835002 0.835002
0.835002 0.835002 0.835002 0.835002 0.835002 0.835002 0.835002 0.835002 0.835002 0.835002
0.835002 0.835002 0.835002 0.835002 0.835002 0.835002 0.835002 0.835002 0.835002 0.835002
0.835002 0.835002 0.835002 0.835002 0.835002 0.835002 0.835002 0.835002 0.835002 0.835002
0.835002 0.835002 0.835002 0.835002 0.835002 0.835002 0.835002 0.835002 0.835002 0.835002
0.835002 0.835002 0.835002 0.835002 0.835002 0.835002 0.835002 0.835002 0.835002 0.835002
0.835002 0.835002 0.835002 0.835002 0.835002 0.835002 0.835002 0.835002 0.835002 0.835002
0.835002 0.835002 0.835002 0.835002 0.835002 0.835002 0.835002 0.835002 0.835002 0.835002
0.835002 0.835002 0.835002 0.835002 0.835002 0.835002 0.835002 0.835002 0.835002 0.835002
0.835002 0.835002 0.835002 0.835002 0.835002 0.835002 0.835002 0.835002 0.835002 0.835002
0.835002 0.835002 0.835002 0.835002 0.835002 0.835002 0.835002 0.835002 0.835002 0.835002
0.835002 0.835002 0.835002 0.835002 0.835002 0.835002 0.835002 0.835002 0.835002 0.835002
0.835002 0.835002 0.835002 0.835002 0.835002 0.835002 0.835002 0.835002 0.835002 0.835002
0.835002 0.835002 0.835002 0.835002 0.835002 0.835002 0.835002 0.835002 0.835002 0.835002
0.835002 0.835002 0.835002 0.835002 0.835002 0.835002 0.835002 0.835002 0.835002 0.835002
0.835002 0.835002 0.835002 0.835002 0.835002 0.835002 0.835002 0.835002 0.835002 0.835002
0.835002 0.835002 0.835002 0.835002 0.835002 0.835002 0.835002 0.835002 0.835002 0.835002
0.835002 0.835002 0.835002 0.835002 0.835002 0.835002 0.835002 0.835002 0.835002 0.835002
0.835002 0.835002 0.835002 0.835002 0.835002 0.835002 0.835002 0.835002 0.835002 0.835002
0.835002 0.835002 0.835002 0.835002 0.835002 0.835002 0.835002 0.835002 0.835002 0.835002
0.835002 0.835002 0.835002 0.835002 0.835002 0.835002 0.835002 0.835002 0.835002 0.835002
0.835002 0.835002 0.835002 0.835002 0.835002 0.835002 0.835002 0.835002 0.835002 0.835002
0.835002 0.835002 0.835002 0.835002 0.835002 0.835002 0.835002 0.835002 0.835002 0.835002
0.835002 0.835002 0.835002 0.835002 0.835002 0.835002 0.835002 0.835002 0.835002 0.835002
0.835002 0.835002 0.835002 0.835002 0.835002 0.835002 0.835002 0.835002 0.835002 0.835002
0.835002 0.835002 0.835002 0.835002 0.835002 0.835002 0.835002 0.835002 0.835002 0.835002
0.835002 0.835002 0.835002 0.835002 0.835002 0.835002 0.835002 0.835002 0.835002 0.835002
0.835002 0.835002 0.835002 0.835002 0.835002 0.835002 0.835002 0.835002 0.835002 0.835002
0.835002 0.835002 0.835002 0.835002 0.835002 0.835002 0.835002 0.835002 0.835002 0.835002
0.835002 0.835002 0.835002 0.835002 0.835002 0.835002 0.835002 0.835002 0.835002 0.835002
0.835002 0.835002 0.835002 0.835002 0.835002 0.835002 0.835002 0.835002 0.835002 0.835002
0.835002 0.835002 0.835002 0.835002 0.835002 0.835002 0.835002 0.835002 0.835002 0.835002
0.835002 0.835002 0.835002 0.835002 0.835002 0.835002 0.835002 0.835002 0.835002 0.835002
0.835002 0.835002 0.835002 0.835002 0.835002 0.835002 0.835002 0.835002 0.835002 0.835002
0.835002 0.835002 0.835002 0.835002 0.835002 0.835002 0.835002 0.835002 0.835002 0.835002
0.835002 0.835002 0.835002 0.835002 0.835002 0.835002 0.835002 0.835002 0.835002 0.835002
0.835002 0.835002 0.835002 0.835002 0.835002 0.835002 0.835002 0.835002 0.835002 0.835002
0.835002 0.835002 0.835002 0.835002 0.835002 0.835002 0.835002 0.835002 0.835002 0.835002
0.835002 0.835002 0.835002 0.835002 0.835002 0.835002 0.835002 0.835002 0.835002 0.835002
0.835002 0.835002 0.835002 0.835002 0.835002 0.835002 0.835002 0.835002 0.835002 0.835002
0.835002 0.835002 0.835002 0.835002 0.835002 0.835002 0.835002 0.835002 0.835002 0.835002
0.835002 0.835002 0.835002 0.835002 0.835002 0.835002 0.835002 0.835002 0.835002 0.835002
0.835002 0.835002 0.835002 0.835002 0.835002 0.835002 0.835002 0.835002 0.835002 0.835002
0.835002 0.835002 0.835002 0.835002 0.835002 0.835002 0.835002 0.835002 0.835002 0.835002
0.835002 0.835002 0.835002 0.835002 0.835002 0.835002 0.835002 0.835002 0.835002 0.835002
0.835002 0.835002 0.835002 0.835002 0.835002 0.835002 0.835002 0.835002 0.835002 0.835002
0.835002 0.835002 0.835002 0.835002 0.835002 0.835002 0.835002 0.835002 0.835002 0.835002
0.835002 0.835002 0.835002 0.835002 0.835002 0.835002 0.835002 0.835002 0.835002 0.835002
0.835002 0.835002 0.835002 0.835002 0.835002 0.835002 0.835002 0.835002 0.835002 
rho 1 840 float
1.138 1.138 1.138 1.138 1.138 1.138 1.138 1.138 1.138 1.138 1.138
1.138 1.138 1.138 1.138 1.138 1.138 1.138 1.138 1.138 1.138
1.138 1.138 1.138 1.138 1.138 1.138 1.138 1.138 1.138 1.138
1.138 1.138 1.138 1.138 1.138 1.138 1.138 1.138 1.138 1.138
1.138 1.138 1.138 1.138 1.138 1.138 1.138 1.138 1.138 1.138
1.138 1.138 1.138 1.138 1.138 1.138 1.138 1.138 1.138 1.138
1.138 1.138 1.138 1.138 1.138 1.138 1.138 1.138 1.138 1.138
1.138 1.138 1.138 1.138 1.138 1.138 1.138 1.138 1.138 1.138
1.138 1.138 1.138 1.138 1.138 1.138 1.138 1.138 1.138 1.138
1.138 1.138 1.138 1.138 1.138 1.138 1.138 1.138 1.138 1.138
1.138 1.138 1.138 1.138 1.138 1.138 1.138 1.138 1.138 1.138
1.138 1.138 1.138 1.138 1.138 1.138 1.138 1.138 1.138 1.138
1.138 1.138 1.138 1.138 1.138 1.138 1.138 1.138 1.138 1.138
1.138 1.138 1.138 1.138 1.138 1.138 1.138 1.138 1.138 1.138
1.138 1.138 1.138 1.138 1.138 1.138 1.138 1.138 1.138 1.138
1.138 1.138 1.138 1.138 1.138 1.138 1.138 1.138 1.138 1.138
1.138 1.138 1.138 1.138 1.138 1.138 1.138 1.138 1.138 1.138
1.138 1.138 1.138 1.138 1.138 1.138 1.138 1.138 1.138 1.138
1.138 1.138 1.138 1.138 1.138 1.138 1.138 1.138 1.138 1.138
1.138 1.138 1.138 1.138 1.138 1.138 1.138 1.138 1.138 1.138
1.138 1.138 1.138 1.138 1.138 1.138 1.138 1.138 1.138 1.138
1.138 1.138 1.138 1.138 1.138 1.138 1.138 1.138 1.138 1.138
1.138 1.138 1.138 1.138 1.138 1.138 1.138 1.138 1.138 1.138
1.138 1.138 1.138 1.138 1.138 1.138 1.138 1.138 1.138 1.138
1.138 1.138 1.138 1.138 1.138 1.138 1.138 1.138 1.138 1.138
1.138 1.138 1.138 1.138 1.138 1.138 1.138 1.138 1.138 1.138
1.138 1.138 1.138 1.138 1.138 1.138 1.138 1.138 1.138 1.138
1.138 1.138 1.138 1.138 1.138 1.138 1.138 1.138 1.138 1.138
1.138 1.138 1.138 1.138 1.138 1.138 1.138 1.138 1.138 1.138
1.138 1.138 1.138 1.138 1.138 1.138 1.138 1.138 1.138 1.138
1.138 1.138 1.138 1.138 1.138 1.138 1.138 1.138 1.138 1.138
1.138 1.138 1.138 1.138 1.138 1.138 1.138 1.138 1.138 1.138
1.138 1.138 1.138 1.138 1.138 1.138 1.138 1.138 1.138 1.138
1.138 1.138 1.138 1.138 1.138 1.138 1.138 1.138 1.138 1.138
1.138 1.138 1.138 1.138 1.138 1.138 1.138 1.138 1.138 1.138
1.138 1.138 1.138 1.138 1.138 1.138 1.138 1.138 1.138 1.138
1.138 1.138 1.138 1.138 1.138 1.138 1.138 1.138 1.138 1.138
1.138 1.138 1.138 1.138 1.138 1.138 1.138 1.138 1.138 1.138
1.138 1.138 1.138 1.138 1.138 1.138 1.138 1.138 1.138 1.138
1.138 1.138 1.138 1.138 1.138 1.138 1.138 1.138 1.138 1.138
1.138 1.138 1.138 1.138 1.138 1.138 1.138 1.138 1.138 1.138
1.138 1.138 1.138 1.138 1.138 1.138 1.138 1.138 1.138 1.138
1.138 1.138 1.138 1.138 1.138 1.138 1.138 1.138 1.138 1.138
1.138 1.138 1.138 1.138 1.138 1.138 1.138 1.138 1.138 1.138
1.138 1.138 1.138 1.138 1.138 1.138 1.138 1.138 1.138 1.138
1.138 1.138 1.138 1.138 1.138 1.138 1.138 1.138 1.138 1.138
1.138 1.138 1.138 1.138 1.138 1.138 1.138 1.138 1.138 1.138
1.138 1.138 1.138 1.138 1.138 1.138 1.138 1.138 1.138 1.138
1.138 1.138 1.138 1.138 1.138 1.138 1.138 1.138 1.138 1.138
1.138 1.138 1.138 1.138 1.138 1.138 1.138 1.138 1.138 1.138
1.138 1.138 1.138 1.138 1.138 1.138 1.138 1.138 1.138 1.138
1.138 1.138 1.138 1.138 1.138 1.138 1.138 1.138 1.138 1.138
1.138 1.138 1.138 1.138 1.138 1.138 1.138 1.138 1.138 1.138
1.138 1.138 1.138 1.138 1.138 1.138 1.138 1.138 1.138 1.138
1.138 1.138 1.138 1.138 1.138 1.138 1.138 1.138 1.138 1.138
1.138 1.138 1.138 1.138 1.138 1.138 1.138 1.138 1.138 1.138
1.138 1.138 1.138 1.138 1.138 1.138 1.138 1.138 1.138 1.138
1.138 1.138 1.138 1.138 1.138 1.138 1.138 1.138 1.138 1.138
1.138 1.138 1.138 1.138 1.138 1.138 1.138 1.138 1.138 1.138
1.138 1.138 1.138 1.138 1.138 1.138 1.138 1.138 1.138 1.138
1.138 1.138 1.138 1.138 1.138 1.138 1.138 1.138 1.138 1.138
1.138 1.138 1.138 1.138 1.138 1.138 1.138 1.138 1.138 1.138
1.138 1.138 1.138 1.138 1.138 1.138 1.138 1.138 1.138 1.138
1.138 1.138 1.138 1.138 1.138 1.138 1.138 1.138 1.138 1.138
1.138 1.138 1.138 1.138 1.138 1.138 1.138 1.138 1.138 1.138
1.138 1.138 1.138 1.138 1.138 1.138 1.138 1.138 1.138 1.138
1.138 1.138 1.138 1.138 1.138 1.138 1.138 1.138 1.138 1.138
1.138 1.138 1.138 1.138 1.138 1.138 1.138 1.138 1.138 1.138
1.138 1.138 1.138 1.138 1.138 1.138 1.138 1.138 1.138 1.138
1.138 1.138 1.138 1.138 1.138 1.138 1.138 1.138 1.138 1.138
1.138 1.138 1.138 1.138 1.138 1.138 1.138 1.138 1.138 1.138
1.138 1.138 1.138 1.138 1.138 1.138 1.138 1.138 1.138 1.138
1.138 1.138 1.138 1.138 1.138 1.138 1.138 1.138 1.138 1.138
1.138 1.138 1.138 1.138 1.138 1.138 1.138 1.138 1.138 1.138
1.138 1.138 1.138 1.138 1.138 1.138 1.138 1.138 1.138 1.138
1.138 1.138 1.138 1.138 1.138 1.138 1.138 1.138 1.138 1.138
1.138 1.138 1.138 1.138 1.138 1.138 1.138 1.138 1.138 1.138
1.138 1.138 1.138 1.138 1.138 1.138 1.138 1.138 1.138 1.138
1.138 1.138 1.138 1.138 1.138 1.138 1.138 1.138 1.138 1.138
1.138 1.138 1.138 1.138 1.138 1.138 1.138 1.138 1.138 1.138
1.138 1.138 1.138 1.138 1.138 1.138 1.138 1.138 1.138 1.138
1.138 1.138 1.138 1.138 1.138 1.138 1.138 1.138 1.138 1.138
1.138 1.138 1.138 1.138 1.138 1.138 1.138 1.138 1.138 1.138
1.138 1.138 1.138 1.138 1.138 1.138 1.138 1.138 1.138 
YCH3OHfuel 1 840 float
0.9 0.9 0.9 0.9 0.9 0.9 0.9 0.9 0.9 0.9 0.9
0.9 0.9 0.9 0.9 0.9 0.9 0.9 0.9 0.9 0.9
0.9 0.9 0.9 0.9 0.9 0.9 0.9 0.9 0.9 0.9
0.9 0.9 0.9 0.9 0.9 0.9 0.9 0.9 0.9 0.9
0.9 0.9 0.9 0.9 0.9 0.9 0.9 0.9 0.9 0.9
0.9 0.9 0.9 0.9 0.9 0.9 0.9 0.9 0.9 0.9
0.9 0.9 0.9 0.9 0.9 0.9 0.9 0.9 0.9 0.9
0.9 0.9 0.9 0.9 0.9 0.9 0.9 0.9 0.9 0.9
0.9 0.9 0.9 0.9 0.9 0.9 0.9 0.9 0.9 0.9
0.9 0.9 0.9 0.9 0.9 0.9 0.9 0.9 0.9 0.9
0.9 0.9 0.9 0.9 0.9 0.9 0.9 0.9 0.9 0.9
0.9 0.9 0.9 0.9 0.9 0.9 0.9 0.9 0.9 0.9
0.9 0.9 0.9 0.9 0.9 0.9 0.9 0.9 0.9 0.9
0.9 0.9 0.9 0.9 0.9 0.9 0.9 0.9 0.9 0.9
0.9 0.9 0.9 0.9 0.9 0.9 0.9 0.9 0.9 0.9
0.9 0.9 0.9 0.9 0.9 0.9 0.9 0.9 0.9 0.9
0.9 0.9 0.9 0.9 0.9 0.9 0.9 0.9 0.9 0.9
0.9 0.9 0.9 0.9 0.9 0.9 0.9 0.9 0.9 0.9
0.9 0.9 0.9 0.9 0.9 0.9 0.9 0.9 0.9 0.9
0.9 0.9 0.9 0.9 0.9 0.9 0.9 0.9 0.9 0.9
0.9 0.9 0.9 0.9 0.9 0.9 0.9 0.9 0.9 0.9
0.9 0.9 0.9 0.9 0.9 0.9 0.9 0.9 0.9 0.9
0.9 0.9 0.9 0.9 0.9 0.9 0.9 0.9 0.9 0.9
0.9 0.9 0.9 0.9 0.9 0.9 0.9 0.9 0.9 0.9
0.9 0.9 0.9 0.9 0.9 0.9 0.9 0.9 0.9 0.9
0.9 0.9 0.9 0.9 0.9 0.9 0.9 0.9 0.9 0.9
0.9 0.9 0.9 0.9 0.9 0.9 0.9 0.9 0.9 0.9
0.9 0.9 0.9 0.9 0.9 0.9 0.9 0.9 0.9 0.9
0.9 0.9 0.9 0.9 0.9 0.9 0.9 0.9 0.9 0.9
0.9 0.9 0.9 0.9 0.9 0.9 0.9 0.9 0.9 0.9
0.9 0.9 0.9 0.9 0.9 0.9 0.9 0.9 0.9 0.9
0.9 0.9 0.9 0.9 0.9 0.9 0.9 0.9 0.9 0.9
0.9 0.9 0.9 0.9 0.9 0.9 0.9 0.9 0.9 0.9
0.9 0.9 0.9 0.9 0.9 0.9 0.9 0.9 0.9 0.9
0.9 0.9 0.9 0.9 0.9 0.9 0.9 0.9 0.9 0.9
0.9 0.9 0.9 0.9 0.9 0.9 0.9 0.9 0.9 0.9
0.9 0.9 0.9 0.9 0.9 0.9 0.9 0.9 0.9 0.9
0.9 0.9 0.9 0.9 0.9 0.9 0.9 0.9 0.9 0.9
0.9 0.9 0.9 0.9 0.9 0.9 0.9 0.9 0.9 0.9
0.9 0.9 0.9 0.9 0.9 0.9 0.9 0.9 0.9 0.9
0.9 0.9 0.9 0.9 0.9 0.9 0.9 0.9 0.9 0.9
0.9 0.9 0.9 0.9 0.9 0.9 0.9 0.9 0.9 0.9
0.9 0.9 0.9 0.9 0.9 0.9 0.9 0.9 0.9 0.9
0.9 0.9 0.9 0.9 0.9 0.9 0.9 0.9 0.9 0.9
0.9 0.9 0.9 0.9 0.9 0.9 0.9 0.9 0.9 0.9
0.9 0.9 0.9 0.9 0.9 0.9 0.9 0.9 0.9 0.9
0.9 0.9 0.9 0.9 0.9 0.9 0.9 0.9 0.9 0.9
0.9 0.9 0.9 0.9 0.9 0.9 0.9 0.9 0.9 0.9
0.9 0.9 0.9 0.9 0.9 0.9 0.9 0.9 0.9 0.9
0.9 0.9 0.9 0.9 0.9 0.9 0.9 0.9 0.9 0.9
0.9 0.9 0.9 0.9 0.9 0.9 0.9 0.9 0.9 0.9
0.9 0.9 0.9 0.9 0.9 0.9 0.9 0.9 0.9 0.9
0.9 0.9 0.9 0.9 0.9 0.9 0.9 0.9 0.9 0.9
0.9 0.9 0.9 0.9 0.9 0.9 0.9 0.9 0.9 0.9
0.9 0.9 0.9 0.9 0.9 0.9 0.9 0.9 0.9 0.9
0.9 0.9 0.9 0.9 0.9 0.9 0.9 0.9 0.9 0.9
0.9 0.9 0.9 0.9 0.9 0.9 0.9 0.9 0.9 0.9
0.9 0.9 0.9 0.9 0.9 0.9 0.9 0.9 0.9 0.9
0.9 0.9 0.9 0.9 0.9 0.9 0.9 0.9 0.9 0.9
0.9 0.9 0.9 0.9 0.9 0.9 0.9 0.9 0.9 0.9
0.9 0.9 0.9 0.9 0.9 0.9 0.9 0.9 0.9 0.9
0.9 0.9 0.9 0.9 0.9 0.9 0.9 0.9 0.9 0.9
0.9 0.9 0.9 0.9 0.9 0.9 0.9 0.9 0.9 0.9
0.9 0.9 0.9 0.9 0.9 0.9 0.9 0.9 0.9 0.9
0.9 0.9 0.9 0.9 0.9 0.9 0.9 0.9 0.9 0.9
0.9 0.9 0.9 0.9 0.9 0.9 0.9 0.9 0.9 0.9
0.9 0.9 0.9 0.9 0.9 0.9 0.9 0.9 0.9 0.9
0.9 0.9 0.9 0.9 0.9 0.9 0.9 0.9 0.9 0.9
0.9 0.9 0.9 0.9 0.9 0.9 0.9 0.9 0.9 0.9
0.9 0.9 0.9 0.9 0.9 0.9 0.9 0.9 0.9 0.9
0.9 0.9 0.9 0.9 0.9 0.9 0.9 0.9 0.9 0.9
0.9 0.9 0.9 0.9 0.9 0.9 0.9 0.9 0.9 0.9
0.9 0.9 0.9 0.9 0.9 0.9 0.9 0.9 0.9 0.9
0.9 0.9 0.9 0.9 0.9 0.9 0.9 0.9 0.9 0.9
0.9 0.9 0.9 0.9 0.9 0.9 0.9 0.9 0.9 0.9
0.9 0.9 0.9 0.9 0.9 0.9 0.9 0.9 0.9 0.9
0.9 0.9 0.9 0.9 0.9 0.9 0.9 0.9 0.9 0.9
0.9 0.9 0.9 0.9 0.9 0.9 0.9 0.9 0.9 0.9
0.9 0.9 0.9 0.9 0.9 0.9 0.9 0.9 0.9 0.9
0.9 0.9 0.9 0.9 0.9 0.9 0.9 0.9 0.9 0.9
0.9 0.9 0.9 0.9 0.9 0.9 0.9 0.9 0.9 0.9
0.9 0.9 0.9 0.9 0.9 0.9 0.9 0.9 0.9 0.9
0.9 0.9 0.9 0.9 0.9 0.9 0.9 0.9 0.9 0.9
0.9 0.9 0.9 0.9 0.9 0.9 0.9 0.9 0.9 
diffCO2fuel 1 840 float
2.11143e-05 2.11143e-05 2.11143e-05 2.11143e-05 2.11143e-05 2.11143e-05 2.11143e-05 2.11143e-05 2.11143e-05 2.11143e-05 2.11143e-05
2.11143e-05 2.11143e-05 2.11143e-05 2.11143e-05 2.11143e-05 2.11143e-05 2.11143e-05 2.11143e-05 2.11143e-05 2.11143e-05
2.11143e-05 2.11143e-05 2.11143e-05 2.11143e-05 2.11143e-05 2.11143e-05 2.11143e-05 2.11143e-05 2.11143e-05 2.11143e-05
2.11143e-05 2.11143e-05 2.11143e-05 2.11143e-05 2.11143e-05 2.11143e-05 2.11143e-05 2.11143e-05 2.11143e-05 2.11143e-05