# vtk DataFile Version 2.0
cclSides
ASCII
DATASET POLYDATA
POINTS 396 float
0.00341 0 0 0.00341185 0 0 0.00341185 0 0.001 0.00341 0
0.001 0.00341185 0 0.002 0.00341 0 0.002 0.00341185 0 0.003
0.00341 0 0.003 0.00341185 0 0.004 0.00341 0 0.004 0.00341185
0 0.005 0.00341 0 0.005 0.00341185 0 0.006 0.00341 0
0.006 0.00341185 0 0.007 0.00341 0 0.007 0.00341185 0 0.008
0.00341 0 0.008 0.00341185 0 0.009 0.00341 0 0.009 0.00341185
0 0.01 0.00341 0 0.01 0.00341185 0 0.011 0.00341 0
0.011 0.00341185 0 0.012 0.00341 0 0.012 0.00341185 0 0.013
0.00341 0 0.013 0.00341185 0 0.014 0.00341 0 0.014 0.00341185
0 0.015 0.00341 0 0.015 0.00341185 0 0.016 0.00341 0
0.016 0.00341185 0 0.017 0.00341 0 0.017 0.00341185 0 0.018
0.00341 0 0.018 0.00341185 0 0.019 0.00341 0 0.019 0.00341185
0 0.02 0.00341 0 0.02 0.00341185 0 0.021 0.00341 0
0.021 0.00341185 0 0.022 0.00341 0 0.022 0.0034137 0 0
0.0034137 0 0.001 0.0034137 0 0.002 0.0034137 0 0.003 0.0034137
0 0.004 0.0034137 0 0.005 0.0034137 0 0.006 0.0034137 0
0.007 0.0034137 0 0.008 0.0034137 0 0.009 0.0034137 0 0.01
0.0034137 0 0.011 0.0034137 0 0.012 0.0034137 0 0.013 0.0034137
0 0.014 0.0034137 0 0.015 0.0034137 0 0.016 0.0034137 0
0.017 0.0034137 0 0.018 0.0034137 0 0.019 0.0034137 0 0.02
0.0034137 0 0.021 0.0034137 0 0.022 0.00341 0.022 0 0.00341
0.022 0.001 0.00341185 0.022 0.001 0.00341185 0.022 0 0.00341 0.022
0.002 0.00341185 0.022 0.002 0.00341 0.022 0.003 0.00341185 0.022 0.003
0.00341 0.022 0.004 0.00341185 0.022 0.004 0.00341 0.022 0.005 0.00341185
0.022 0.005 0.00341 0.022 0.006 0.00341185 0.022 0.006 0.00341 0.022
0.007 0.00341185 0.022 0.007 0.00341 0.022 0.008 0.00341185 0.022 0.008
0.00341 0.022 0.009 0.00341185 0.022 0.009 0.00341 0.022 0.01 0.00341185
0.022 0.01 0.00341 0.022 0.011 0.00341185 0.022 0.011 0.00341 0.022
0.012 0.00341185 0.022 0.012 0.00341 0.022 0.013 0.00341185 0.022 0.013
0.00341 0.022 0.014 0.00341185 0.022 0.014 0.00341 0.022 0.015 0.00341185
0.022 0.015 0.00341 0.022 0.016 0.00341185 0.022 0.016 0.00341 0.022
0.017 0.00341185 0.022 0.017 0.00341 0.022 0.018 0.00341185 0.022 0.018
0.00341 0.022 0.019 0.00341185 0.022 0.019 0.00341 0.022 0.02 0.00341185
0.022 0.02 0.00341 0.022 0.021 0.00341185 0.022 0.021 0.00341 0.022
0.022 0.00341185 0.022 0.022 0.0034137 0.022 0.001 0.0034137 0.022 0
0.0034137 0.022 0.002 0.0034137 0.022 0.003 0.0034137 0.022 0.004 0.0034137
0.022 0.005 0.0034137 0.022 0.006 0.0034137 0.022 0.007 0.0034137 0.022
0.008 0.0034137 0.022 0.009 0.0034137 0.022 0.01 0.0034137 0.022 0.011
0.0034137 0.022 0.012 0.0034137 0.022 0.013 0.0034137 0.022 0.014 0.0034137
0.022 0.015 0.0034137 0.022 0.016 0.0034137 0.022 0.017 0.0034137 0.022
0.018 0.0034137 0.022 0.019 0.0034137 0.022 0.02 0.0034137 0.022 0.021
0.0034137 0.022 0.022 0.00341 0.0005 0 0.00341185 0.0005 0 0.00341
0.001 0 0.00341185 0.001 0 0.00341 0.0015 0 0.00341185 0.0015
0 0.00341 0.002 0 0.00341185 0.002 0 0.00341 0.0025 0
0.00341185 0.0025 0 0.00341 0.003 0 0.00341185 0.003 0 0.00341
0.0035 0 0.00341185 0.0035 0 0.00341 0.004 0 0.00341185 0.004
0 0.00341 0.0045 0 0.00341185 0.0045 0 0.00341 0.005 0
0.00341185 0.005 0 0.00341 0.0055 0 0.00341185 0.0055 0 0.00341
0.006 0 0.00341185 0.006 0 0.00341 0.0065 0 0.00341185 0.0065
0 0.00341 0.007 0 0.00341185 0.007 0 0.00341 0.0075 0
0.00341185 0.0075 0 0.00341 0.008 0 0.00341185 0.008 0 0.00341
0.0085 0 0.00341185 0.0085 0 0.00341 0.009 0 0.00341185 0.009
0 0.00341 0.0095 0 0.00341185 0.0095 0 0.00341 0.01 0
0.00341185 0.01 0 0.00341 0.0105 0 0.00341185 0.0105 0 0.00341
0.011 0 0.00341185 0.011 0 0.00341 0.0115 0 0.00341185 0.0115
0 0.00341 0.012 0 0.00341185 0.012 0 0.00341 0.0125 0
0.00341185 0.0125 0 0.00341 0.013 0 0.00341185 0.013 0 0.00341
0.0135 0 0.00341185 0.0135 0 0.00341 0.014 0 0.00341185 0.014
0 0.00341 0.0145 0 0.00341185 0.0145 0 0.00341 0.015 0
0.00341185 0.015 0 0.00341 0.0155 0 0.00341185 0.0155 0 0.00341
0.016 0 0.00341185 0.016 0 0.00341 0.0165 0 0.00341185 0.0165
0 0.00341 0.017 0 0.00341185 0.017 0 0.00341 0.0175 0
0.00341185 0.0175 0 0.00341 0.018 0 0.00341185 0.018 0 0.00341
0.0185 0 0.00341185 0.0185 0 0.00341 0.019 0 0.00341185 0.019
0 0.00341 0.0195 0 0.00341185 0.0195 0 0.00341 0.02 0
0.00341185 0.02 0 0.00341 0.0205 0 0.00341185 0.0205 0 0.00341
0.021 0 0.00341185 0.021 0 0.00341 0.0215 0 0.00341185 0.0215
0 0.0034137 0.0005 0 0.0034137 0.001 0 0.0034137 0.0015 0
0.0034137 0.002 0 0.0034137 0.0025 0 0.0034137 0.003 0 0.0034137
0.0035 0 0.0034137 0.004 0 0.0034137 0.0045 0 0.0034137 0.005
0 0.0034137 0.0055 0 0.0034137 0.006 0 0.0034137 0.0065 0
0.0034137 0.007 0 0.0034137 0.0075 0 0.0034137 0.008 0 0.0034137
0.0085 0 0.0034137 0.009 0 0.0034137 0.0095 0 0.0034137 0.01
0 0.0034137 0.0105 0 0.0034137 0.011 0 0.0034137 0.0115 0
0.0034137 0.012 0 0.0034137 0.0125 0 0.0034137 0.013 0 0.0034137
0.0135 0 0.0034137 0.014 0 0.0034137 0.0145 0 0.0034137 0.015
0 0.0034137 0.0155 0 0.0034137 0.016 0 0.0034137 0.0165 0
0.0034137 0.017 0 0.0034137 0.0175 0 0.0034137 0.018 0 0.0034137
0.0185 0 0.0034137 0.019 0 0.0034137 0.0195 0 0.0034137 0.02
0 0.0034137 0.0205 0 0.0034137 0.021 0 0.0034137 0.0215 0
0.00341185 0.0005 0.022 0.00341 0.0005 0.022 0.00341185 0.001 0.022 0.00341
0.001 0.022 0.00341185 0.0015 0.022 0.00341 0.0015 0.022 0.00341185 0.002
0.022 0.00341 0.002 0.022 0.00341185 0.0025 0.022 0.00341 0.0025 0.022
0.00341185 0.003 0.022 0.00341 0.003 0.022 0.00341185 0.0035 0.022 0.00341
0.0035 0.022 0.00341185 0.004 0.022 0.00341 0.004 0.022 0.00341185 0.0045
0.022 0.00341 0.0045 0.022 0.00341185 0.005 0.022 0.00341 0.005 0.022
0.00341185 0.0055 0.022 0.00341 0.0055 0.022 0.00341185 0.006 0.022 0.00341
0.006 0.022 0.00341185 0.0065 0.022 0.00341 0.0065 0.022 0.00341185 0.007
0.022 0.00341 0.007 0.022 0.00341185 0.0075 0.022 0.00341 0.0075 0.022
0.00341185 0.008 0.022 0.00341 0.008 0.022 0.00341185 0.0085 0.022 0.00341
0.0085 0.022 0.00341185 0.009 0.022 0.00341 0.009 0.022 0.00341185 0.0095
0.022 0.00341 0.0095 0.022 0.00341185 0.01 0.022 0.00341 0.01 0.022
0.00341185 0.0105 0.022 0.00341 0.0105 0.022 0.00341185 0.011 0.022 0.00341
0.011 0.022 0.00341185 0.0115 0.022 0.00341 0.0115 0.022 0.00341185 0.012
0.022 0.00341 0.012 0.022 0.00341185 0.0125 0.022 0.00341 0.0125 0.022
0.00341185 0.013 0.022 0.00341 0.013 0.022 0.00341185 0.0135 0.022 0.00341
0.0135 0.022 0.00341185 0.014 0.022 0.00341 0.014 0.022 0.00341185 0.0145
0.022 0.00341 0.0145 0.022 0.00341185 0.015 0.022 0.00341 0.015 0.022
0.00341185 0.0155 0.022 0.00341 0.0155 0.022 0.00341185 0.016 0.022 0.00341
0.016 0.022 0.00341185 0.0165 0.022 0.00341 0.0165 0.022 0.00341185 0.017
0.022 0.00341 0.017 0.022 0.00341185 0.0175 0.022 0.00341 0.0175 0.022
0.00341185 0.018 0.022 0.00341 0.018 0.022 0.00341185 0.0185 0.022 0.00341
0.0185 0.022 0.00341185 0.019 0.022 0.00341 0.019 0.022 0.00341185 0.0195
0.022 0.00341 0.0195 0.022 0.00341185 0.02 0.022 0.00341 0.02 0.022
0.00341185 0.0205 0.022 0.00341 0.0205 0.022 0.00341185 0.021 0.022 0.00341
0.021 0.022 0.00341185 0.0215 0.022 0.00341 0.0215 0.022 0.0034137 0.0005
0.022 0.0034137 0.001 0.022 0.0034137 0.0015 0.022 0.0034137 0.002 0.022
0.0034137 0.0025 0.022 0.0034137 0.003 0.022 0.0034137 0.0035 0.022 0.0034137
0.004 0.022 0.0034137 0.0045 0.022 0.0034137 0.005 0.022 0.0034137 0.0055
0.022 0.0034137 0.006 0.022 0.0034137 0.0065 0.022 0.0034137 0.007 0.022
0.0034137 0.0075 0.022 0.0034137 0.008 0.022 0.0034137 0.0085 0.022 0.0034137
0.009 0.022 0.0034137 0.0095 0.022 0.0034137 0.01 0.022 0.0034137 0.0105
0.022 0.0034137 0.011 0.022 0.0034137 0.0115 0.022 0.0034137 0.012 0.022
0.0034137 0.0125 0.022 0.0034137 0.013 0.022 0.0034137 0.0135 0.022 0.0034137
0.014 0.022 0.0034137 0.0145 0.022 0.0034137 0.015 0.022 0.0034137 0.0155
0.022 0.0034137 0.016 0.022 0.0034137 0.0165 0.022 0.0034137 0.017 0.022
0.0034137 0.0175 0.022 0.0034137 0.018 0.022 0.0034137 0.0185 0.022 0.0034137
0.019 0.022 0.0034137 0.0195 0.022 0.0034137 0.02 0.022 0.0034137 0.0205
0.022 0.0034137 0.021 0.022 0.0034137 0.0215 0.022 
POLYGONS 264 1320
4 0 1 2 3 4 3 2 4 5 4
5 4 6 7 4 7 6 8 9 4
9 8 10 11 4 11 10 12 13 4
13 12 14 15 4 15 14 16 17 4
17 16 18 19 4 19 18 20 21 4
21 20 22 23 4 23 22 24 25 4
25 24 26 27 4 27 26 28 29 4
29 28 30 31 4 31 30 32 33 4
33 32 34 35 4 35 34 36 37 4
37 36 38 39 4 39 38 40 41 4
41 40 42 43 4 43 42 44 45 4
1 46 47 2 4 2 47 48 4 4
4 48 49 6 4 6 49 50 8 4
8 50 51 10 4 10 51 52 12 4
12 52 53 14 4 14 53 54 16 4
16 54 55 18 4 18 55 56 20 4
20 56 57 22 4 22 57 58 24 4
24 58 59 26 4 26 59 60 28 4
28 60 61 30 4 30 61 62 32 4
32 62 63 34 4 34 63 64 36 4
36 64 65 38 4 38 65 66 40 4
40 66 67 42 4 42 67 68 44 4
69 70 71 72 4 70 73 74 71 4
73 75 76 74 4 75 77 78 76 4
77 79 80 78 4 79 81 82 80 4
81 83 84 82 4 83 85 86 84 4
85 87 88 86 4 87 89 90 88 4
89 91 92 90 4 91 93 94 92 4
93 95 96 94 4 95 97 98 96 4
97 99 100 98 4 99 101 102 100 4
101 103 104 102 4 103 105 106 104 4
105 107 108 106 4 107 109 110 108 4
109 111 112 110 4 111 113 114 112 4
72 71 115 116 4 71 74 117 115 4
74 76 118 117 4 76 78 119 118 4
78 80 120 119 4 80 82 121 120 4
82 84 122 121 4 84 86 123 122 4
86 88 124 123 4 88 90 125 124 4
90 92 126 125 4 92 94 127 126 4
94 96 128 127 4 96 98 129 128 4
98 100 130 129 4 100 102 131 130 4
102 104 132 131 4 104 106 133 132 4
106 108 134 133 4 108 110 135 134 4
110 112 136 135 4 112 114 137 136 4
0 138 139 1 4 138 140 141 139 4
140 142 143 141 4 142 144 145 143 4
144 146 147 145 4 146 148 149 147 4
148 150 151 149 4 150 152 153 151 4
152 154 155 153 4 154 156 157 155 4
156 158 159 157 4 158 160 161 159 4
160 162 163 161 4 162 164 165 163 4
164 166 167 165 4 166 168 169 167 4
168 170 171 169 4 170 172 173 171 4
172 174 175 173 4 174 176 177 175 4
176 178 179 177 4 178 180 181 179 4
180 182 183 181 4 182 184 185 183 4
184 186 187 185 4 186 188 189 187 4
188 190 191 189 4 190 192 193 191 4
192 194 195 193 4 194 196 197 195 4
196 198 199 197 4 198 200 201 199 4
200 202 203 201 4 202 204 205 203 4
204 206 207 205 4 206 208 209 207 4
208 210 211 209 4 210 212 213 211 4
212 214 215 213 4 214 216 217 215 4
216 218 219 217 4 218 220 221 219 4
220 222 223 221 4 222 69 72 223 4
1 139 224 46 4 139 141 225 224 4
141 143 226 225 4 143 145 227 226 4
145 147 228 227 4 147 149 229 228 4
149 151 230 229 4 151 153 231 230 4
153 155 232 231 4 155 157 233 232 4
157 159 234 233 4 159 161 235 234 4
161 163 236 235 4 163 165 237 236 4
165 167 238 237 4 167 169 239 238 4
169 171 240 239 4 171 173 241 240 4
173 175 242 241 4 175 177 243 242 4
177 179 244 243 4 179 181 245 244 4
181 183 246 245 4 183 185 247 246 4
185 187 248 247 4 187 189 249 248 4
189 191 250 249 4 191 193 251 250 4
193 195 252 251 4 195 197 253 252 4
197 199 254 253 4 199 201 255 254 4
201 203 256 255 4 203 205 257 256 4
205 207 258 257 4 207 209 259 258 4
209 211 260 259 4 211 213 261 260 4
213 215 262 261 4 215 217 263 262 4
217 219 264 263 4 219 221 265 264 4
221 223 266 265 4 223 72 116 266 4
45 44 267 268 4 268 267 269 270 4
270 269 271 272 4 272 271 273 274 4
274 273 275 276 4 276 275 277 278 4
278 277 279 280 4 280 279 281 282 4
282 281 283 284 4 284 283 285 286 4
286 285 287 288 4 288 287 289 290 4
290 289 291 292 4 292 291 293 294 4
294 293 295 296 4 296 295 297 298 4
298 297 299 300 4 300 299 301 302 4
302 301 303 304 4 304 303 305 306 4
306 305 307 308 4 308 307 309 310 4
310 309 311 312 4 312 311 313 314 4
314 313 315 316 4 316 315 317 318 4
318 317 319 320 4 320 319 321 322 4
322 321 323 324 4 324 323 325 326 4
326 325 327 328 4 328 327 329 330 4
330 329 331 332 4 332 331 333 334 4
334 333 335 336 4 336 335 337 338 4
338 337 339 340 4 340 339 341 342 4
342 341 343 344 4 344 343 345 346 4
346 345 347 348 4 348 347 349 350 4
350 349 351 352 4 352 351 114 113 4
44 68 353 267 4 267 353 354 269 4
269 354 355 271 4 271 355 356 273 4
273 356 357 275 4 275 357 358 277 4
277 358 359 279 4 279 359 360 281 4
281 360 361 283 4 283 361 362 285 4
285 362 363 287 4 287 363 364 289 4
289 364 365 291 4 291 365 366 293 4
293 366 367 295 4 295 367 368 297 4
297 368 369 299 4 299 369 370 301 4
301 370 371 303 4 303 371 372 305 4
305 372 373 307 4 307 373 374 309 4
309 374 375 311 4 311 375 376 313 4
313 376 377 315 4 315 377 378 317 4
317 378 379 319 4 319 379 380 321 4
321 380 381 323 4 323 381 382 325 4
325 382 383 327 4 327 383 384 329 4
329 384 385 331 4 331 385 386 333 4
333 386 387 335 4 335 387 388 337 4
337 388 389 339 4 339 389 390 341 4
341 390 391 343 4 343 391 392 345 4
345 392 393 347 4 347 393 394 349 4
349 394 395 351 4 351 395 137 114 
CELL_DATA 264
FIELD attributes 16
patchID 1 264 float
3 3 3 3 3 3 3 3 3 3 3
3 3 3 3 3 3 3 3 3 3
3 3 3 3 3 3 3 3 3 3
3 3 3 3 3 3 3 3 3 3
3 3 3 3 3 3 3 3 3 3
3 3 3 3 3 3 3 3 3 3
3 3 3 3 3 3 3 3 3 3
3 3 3 3 3 3 3 3 3 3
3 3 3 3 3 3 3 3 3 3
3 3 3 3 3 3 3 3 3 3
3 3 3 3 3 3 3 3 3 3
3 3 3 3 3 3 3 3 3 3
3 3 3 3 3 3 3 3 3 3
3 3 3 3 3 3 3 3 3 3
3 3 3 3 3 3 3 3 3 3
3 3 3 3 3 3 3 3 3 3
3 3 3 3 3 3 3 3 3 3
3 3 3 3 3 3 3 3 3 3
3 3 3 3 3 3 3 3 3 3
3 3 3 3 3 3 3 3 3 3
3 3 3 3 3 3 3 3 3 3
3 3 3 3 3 3 3 3 3 3
3 3 3 3 3 3 3 3 3 3
3 3 3 3 3 3 3 3 3 3
3 3 3 3 3 3 3 3 3 3
3 3 3 3 3 3 3 3 3 3
3 3 3 
YH2Oair 1 264 float
0.152312 0.152506 0.152817 0.15317 0.153495 0.153788 0.154039 0.154257 0.154446 0.154611 0.154759
0.154885 0.154999 0.155101 0.155196 0.155289 0.155373 0.155461 0.155567 0.155715 0.155997
0.156391 0.152319 0.152514 0.152824 0.153178 0.153502 0.153795 0.154046 0.154264 0.154453
0.154618 0.154767 0.154893 0.155006 0.155109 0.155203 0.155296 0.15538 0.155469 0.155574
0.155722 0.156004 0.156399 0.1523 0.1525 0.152812 0.153167 0.153496 0.153783 0.154036
0.154254 0.154444 0.154612 0.154755 0.154882 0.154996 0.155099 0.155197 0.155284 0.155369
0.155458 0.155564 0.155716 0.155991 0.156387 0.152307 0.152508 0.15282 0.153175 0.153504
0.153791 0.154043 0.154262 0.154451 0.15462 0.154763 0.15489 0.155003 0.155106 0.155204
0.155292 0.155376 0.155465 0.155572 0.155723 0.155999 0.156394 0.152312 0.151581 0.150823
0.150672 0.150674 0.15079 0.151337 0.151317 0.150783 0.150672 0.150672 0.150785 0.151323
0.151319 0.150783 0.150671 0.150671 0.150783 0.15132 0.151319 0.150783 0.150671 0.150671
0.150783 0.15132 0.15132 0.150784 0.150672 0.150671 0.150783 0.151321 0.151325 0.150786
0.150673 0.150672 0.150782 0.151315 0.151335 0.150789 0.150672 0.150669 0.150818 0.151573
0.1523 0.152319 0.151589 0.150831 0.15068 0.150682 0.150798 0.151344 0.151324 0.150791
0.15068 0.15068 0.150793 0.151331 0.151327 0.150791 0.150679 0.150679 0.150791 0.151327
0.151327 0.150791 0.150679 0.150679 0.150791 0.151327 0.151328 0.150792 0.15068 0.150679
0.150791 0.151329 0.151333 0.150794 0.150681 0.15068 0.15079 0.151323 0.151343 0.150797
0.15068 0.150677 0.150826 0.151581 0.152307 0.156391 0.155654 0.154149 0.153067 0.152713
0.153025 0.15369 0.15368 0.152987 0.152539 0.152525 0.152953 0.153643 0.153645 0.152957
0.152523 0.152522 0.152955 0.153645 0.153645 0.152955 0.152522 0.152522 0.152955 0.153645
0.153645 0.152954 0.152521 0.152522 0.152956 0.153645 0.153643 0.152952 0.152525 0.152538
0.152986 0.153679 0.153689 0.153024 0.152712 0.153065 0.154146 0.15565 0.156387 0.156399
0.155661 0.154157 0.153075 0.152721 0.153032 0.153697 0.153687 0.152994 0.152546 0.152532
0.15296 0.153651 0.153652 0.152964 0.15253 0.152529 0.152962 0.153653 0.153653 0.152963
0.152529 0.152529 0.152962 0.153653 0.153653 0.152962 0.152529 0.15253 0.152964 0.153652
0.15365 0.15296 0.152532 0.152546 0.152994 0.153686 0.153697 0.153032 0.152719 0.153073
0.154154 0.155658 0.156394 
XH2Oair 1 264 float
0.223481 0.223739 0.22415 0.224617 0.225046 0.225432 0.225763 0.226051 0.2263 0.226517 0.226712
0.226878 0.227027 0.227162 0.227286 0.227409 0.227519 0.227636 0.227775 0.22797 0.228341
0.228859 0.223491 0.223749 0.22416 0.224627 0.225056 0.225442 0.225773 0.226061 0.226309
0.226526 0.226722 0.226888 0.227037 0.227172 0.227296 0.227419 0.227529 0.227646 0.227784
0.227979 0.228351 0.228869 0.223466 0.223731 0.224144 0.224613 0.225048 0.225426 0.225759
0.226047 0.226297 0.226519 0.226707 0.226874 0.227023 0.227159 0.227288 0.227403 0.227515
0.227631 0.227771 0.227971 0.228333 0.228854 0.223476 0.223742 0.224154 0.224623 0.225057
0.225436 0.225769 0.226057 0.226306 0.226528 0.226717 0.226884 0.227033 0.227169 0.227298
0.227413 0.227524 0.227641 0.227781 0.227981 0.228343 0.228863 0.223481 0.222514 0.221508
0.221308 0.22131 0.221465 0.222189 0.222163 0.221455 0.221308 0.221308 0.221458 0.222171
0.222166 0.221456 0.221306 0.221307 0.221456 0.222167 0.222166 0.221456 0.221307 0.221307
0.221456 0.222166 0.222168 0.221457 0.221307 0.221307 0.221456 0.222168 0.222174 0.22146
0.221309 0.221308 0.221454 0.222161 0.222188 0.221464 0.221308 0.221304 0.221503 0.222503
0.223466 0.223491 0.222524 0.221519 0.221319 0.221321 0.221475 0.222199 0.222173 0.221466
0.221319 0.221318 0.221468 0.222181 0.222176 0.221466 0.221317 0.221317 0.221466 0.222177
0.222177 0.221466 0.221317 0.221317 0.221466 0.222177 0.222178 0.221467 0.221318 0.221318
0.221466 0.222179 0.222184 0.22147 0.22132 0.221318 0.221465 0.222172 0.222198 0.221474
0.221319 0.221315 0.221513 0.222514 0.223476 0.228859 0.227888 0.225905 0.224479 0.224011
0.224422 0.2253 0.225287 0.224371 0.22378 0.223761 0.224326 0.225238 0.22524 0.224332
0.223759 0.223758 0.224329 0.225241 0.225241 0.22433 0.223758 0.223757 0.224329 0.225241
0.225241 0.224329 0.223757 0.223759 0.224331 0.22524 0.225238 0.224326 0.223761 0.22378
0.224371 0.225286 0.225299 0.224421 0.224009 0.224476 0.225901 0.227883 0.228854 0.228869
0.227898 0.225915 0.224488 0.224021 0.224432 0.22531 0.225297 0.224381 0.22379 0.223771
0.224336 0.225248 0.22525 0.224342 0.223769 0.223768 0.224339 0.225251 0.225251 0.224339
0.223768 0.223767 0.224339 0.225251 0.225251 0.224339 0.223767 0.223769 0.224341 0.22525
0.225248 0.224336 0.223771 0.22379 0.22438 0.225296 0.225309 0.224431 0.224019 0.224486
0.225911 0.227893 0.228863 
rho 1 264 float
0.912119 0.911994 0.9118 0.911581 0.911378 0.911193 0.911034 0.910893 0.91077 0.910661 0.910562
0.910478 0.910401 0.910331 0.910267 0.910204 0.910147 0.910089 0.910022 0.909931 0.909762
0.909526 0.912114 0.911989 0.911795 0.911576 0.911373 0.911189 0.911029 0.910888 0.910765
0.910657 0.910558 0.910473 0.910396 0.910326 0.910262 0.9102 0.910143 0.910085 0.910017
0.909927 0.909757 0.909522 0.912126 0.911997 0.911803 0.911583 0.911377 0.911196 0.911035
0.910895 0.910771 0.91066 0.910565 0.910479 0.910403 0.910332 0.910266 0.910207 0.91015
0.910091 0.910024 0.909931 0.909765 0.909528 0.912121 0.911993 0.911798 0.911578 0.911372
0.911192 0.911031 0.91089 0.910767 0.910656 0.91056 0.910475 0.910398 0.910328 0.910262
0.910202 0.910145 0.910087 0.910019 0.909926 0.909761 0.909524 0.912119 0.912568 0.91308
0.913207 0.913208 0.913106 0.912724 0.912737 0.913113 0.913213 0.913213 0.913113 0.912736
0.912738 0.913115 0.913215 0.913215 0.913115 0.912739 0.912739 0.913115 0.913215 0.913215
0.913115 0.912739 0.912739 0.913115 0.913215 0.913215 0.913114 0.912737 0.912734 0.913112
0.913213 0.913213 0.913113 0.912738 0.912725 0.913107 0.913209 0.913209 0.913083 0.912573
0.912126 0.912114 0.912564 0.913075 0.913202 0.913203 0.913101 0.912719 0.912732 0.913108
0.913208 0.913209 0.913108 0.912731 0.912734 0.91311 0.91321 0.91321 0.91311 0.912734
0.912735 0.91311 0.913211 0.913211 0.91311 0.912734 0.912734 0.91311 0.91321 0.91321
0.91311 0.912732 0.91273 0.913107 0.913208 0.913208 0.913108 0.912733 0.91272 0.913102
0.913204 0.913204 0.913078 0.912569 0.912121 0.909526 0.909949 0.910804 0.911431 0.911643
0.911471 0.911106 0.911111 0.911491 0.911742 0.911751 0.911511 0.911132 0.911131 0.911509
0.911752 0.911753 0.91151 0.911131 0.911131 0.91151 0.911753 0.911753 0.91151 0.911131
0.911131 0.911511 0.911753 0.911752 0.911509 0.911131 0.911132 0.911511 0.911751 0.911742
0.911492 0.911111 0.911106 0.911472 0.911644 0.911433 0.910805 0.909951 0.909528 0.909522
0.909944 0.910799 0.911427 0.911638 0.911467 0.911101 0.911106 0.911487 0.911737 0.911746
0.911507 0.911127 0.911126 0.911505 0.911747 0.911748 0.911506 0.911126 0.911126 0.911506
0.911748 0.911748 0.911506 0.911126 0.911126 0.911506 0.911748 0.911748 0.911505 0.911126
0.911128 0.911507 0.911746 0.911738 0.911487 0.911107 0.911102 0.911467 0.911639 0.911428
0.910801 0.909947 0.909524 
diffH2Oair 1 264 float
9.83141e-06 9.83149e-06 9.83158e-06 9.83168e-06 9.83177e-06 9.83187e-06 9.83196e-06 9.83206e-06 9.83215e-06 9.83224e-06 9.83233e-06
9.83242e-06 9.8325e-06 9.83258e-06 9.83265e-06 9.83272e-06 9.83277e-06 9.83282e-06 9.83286e-06 9.83289e-06 9.8329e-06
9.83288e-06 9.83141e-06 9.83149e-06 9.83158e-06 9.83168e-06 9.83177e-06 9.83187e-06 9.83196e-06 9.83206e-06 9.83215e-06
9.83224e-06 9.83233e-06 9.83242e-06 9.8325e-06 9.83258e-06 9.83265e-06 9.83272e-06 9.83277e-06 9.83282e-06 9.83286e-06
9.83289e-06 9.8329e-06 9.83288e-06 9.83141e-06 9.83149e-06 9.83158e-06 9.83168e-06 9.83177e-06 9.83187e-06 9.83196e-06
9.83206e-06 9.83215e-06 9.83224e-06 9.83233e-06 9.83242e-06 9.8325e-06 9.83258e-06 9.83265e-06 9.83272e-06 9.83277e-06
9.83282e-06 9.83286e-06 9.83289e-06 9.8329e-06 9.83288e-06 9.83141e-06 9.83149e-06 9.83158e-06 9.83168e-06 9.83177e-06
9.83186e-06 9.83196e-06 9.83206e-06 9.83215e-06 9.83224e-06 9.83233e-06 9.83242e-06 9.8325e-06 9.83258e-06 9.83265e-06
9.83272e-06 9.83277e-06 9.83282e-06 9.83286e-06 9.83289e-06 9.8329e-06 9.83288e-06 9.83141e-06 9.83122e-06 9.83047e-06
9.83003e-06 9.83e-06 9.83038e-06 9.83102e-06 9.83101e-06 9.83035e-06 9.82996e-06 9.82995e-06 9.83034e-06 9.83098e-06
9.83098e-06 9.83033e-06 9.82994e-06 9.82994e-06 9.83032e-06 9.83097e-06 9.83097e-06 9.83032e-06 9.82994e-06 9.82994e-06
9.83032e-06 9.83097e-06 9.83097e-06 9.83032e-06 9.82994e-06 9.82994e-06 9.83033e-06 9.83098e-06 9.83098e-06 9.83034e-06
9.82995e-06 9.82996e-06 9.83035e-06 9.83101e-06 9.83102e-06 9.83037e-06 9.83e-06 9.83003e-06 9.83047e-06 9.83122e-06
9.83141e-06 9.83141e-06 9.83122e-06 9.83047e-06 9.83003e-06 9.83e-06 9.83038e-06 9.83102e-06 9.83101e-06 9.83035e-06
9.82996e-06 9.82995e-06 9.83034e-06 9.83098e-06 9.83098e-06 9.83033e-06 9.82994e-06 9.82994e-06 9.83032e-06 9.83097e-06
9.83097e-06 9.83032e-06 9.82994e-06 9.82994e-06 9.83032e-06 9.83097e-06 9.83097e-06 9.83032e-06 9.82994e-06 9.82994e-06
9.83033e-06 9.83098e-06 9.83098e-06 9.83034e-06 9.82995e-06 9.82996e-06 9.83035e-06 9.83101e-06 9.83102e-06 9.83037e-06
9.83e-06 9.83003e-06 9.83047e-06 9.83122e-06 9.83141e-06 9.83288e-06 9.83303e-06 9.83346e-06 9.83374e-06 9.83378e-06
9.83359e-06 9.83324e-06 9.83324e-06 9.8336e-06 9.83381e-06 9.83381e-06 9.8336e-06 9.83324e-06 9.83324e-06 9.83359e-06
9.83381e-06 9.83381e-06 9.83359e-06 9.83324e-06 9.83324e-06 9.83359e-06 9.8338e-06 9.8338e-06 9.83359e-06 9.83324e-06
9.83324e-06 9.83359e-06 9.83381e-06 9.83381e-06 9.83359e-06 9.83324e-06 9.83324e-06 9.8336e-06 9.83381e-06 9.83381e-06
9.8336e-06 9.83324e-06 9.83324e-06 9.83359e-06 9.83378e-06 9.83374e-06 9.83346e-06 9.83303e-06 9.83288e-06 9.83288e-06
9.83303e-06 9.83346e-06 9.83374e-06 9.83378e-06 9.83359e-06 9.83324e-06 9.83324e-06 9.8336e-06 9.83381e-06 9.83381e-06
9.8336e-06 9.83324e-06 9.83324e-06 9.83359e-06 9.83381e-06 9.83381e-06 9.83359e-06 9.83324e-06 9.83324e-06 9.83359e-06
9.8338e-06 9.8338e-06 9.83359e-06 9.83324e-06 9.83324e-06 9.83359e-06 9.83381e-06 9.83381e-06 9.83359e-06 9.83324e-06
9.83324e-06 9.8336e-06 9.83381e-06 9.83381e-06 9.8336e-06 9.83324e-06 9.83324e-06 9.83358e-06 9.83378e-06 9.83374e-06
9.83346e-06 9.83303e-06 9.83288e-06 
cp 1 264 float
1146.34 1146.53 1146.83 1147.17 1147.48 1147.76 1148.01 1148.22 1148.4 1148.56 1148.7
1148.83 1148.94 1149.04 1149.13 1149.22 1149.3 1149.39 1149.49 1149.63 1149.9
1150.28 1146.35 1146.54 1146.84 1147.18 1147.49 1147.77 1148.01 1148.22 1148.41
1148.57 1148.71 1148.83 1148.94 1149.05 1149.14 1149.23 1149.31 1149.39 1149.5
1149.64 1149.91 1150.29 1146.33 1146.53 1146.82 1147.17 1147.48 1147.76 1148
1148.21 1148.4 1148.56 1148.7 1148.82 1148.94 1149.04 1149.13 1149.21 1149.3
1149.38 1149.49 1149.63 1149.9 1150.28 1146.34 1146.53 1146.83 1147.17 1147.49
1147.77 1148.01 1148.22 1148.41 1148.57 1148.71 1148.83 1148.94 1149.04 1149.14
1149.22 1149.31 1149.39 1149.49 1149.64 1149.9 1150.29 1146.34 1145.65 1144.92
1144.78 1144.78 1144.89 1145.42 1145.4 1144.88 1144.78 1144.78 1144.89 1145.4
1145.4 1144.88 1144.78 1144.78 1144.88 1145.4 1145.4 1144.88 1144.78 1144.78
1144.88 1145.4 1145.4 1144.88 1144.78 1144.78 1144.88 1145.4 1145.41 1144.89
1144.78 1144.78 1144.88 1145.4 1145.42 1144.89 1144.78 1144.77 1144.92 1145.64
1146.33 1146.35 1145.65 1144.93 1144.79 1144.79 1144.9 1145.42 1145.4 1144.89
1144.78 1144.78 1144.89 1145.41 1145.41 1144.89 1144.78 1144.78 1144.89 1145.41
1145.41 1144.89 1144.78 1144.78 1144.89 1145.41 1145.41 1144.89 1144.78 1144.78
1144.89 1145.41 1145.41 1144.89 1144.79 1144.78 1144.89 1145.4 1145.42 1144.9
1144.78 1144.78 1144.92 1145.65 1146.34 1150.28 1149.58 1148.13 1147.09 1146.75
1147.05 1147.69 1147.68 1147.01 1146.58 1146.57 1146.98 1147.64 1147.65 1146.98
1146.57 1146.56 1146.98 1147.65 1147.65 1146.98 1146.56 1146.56 1146.98 1147.65
1147.65 1146.98 1146.56 1146.57 1146.98 1147.64 1147.64 1146.98 1146.57 1146.58
1147.01 1147.68 1147.69 1147.05 1146.74 1147.09 1148.13 1149.57 1150.28 1150.29
1149.58 1148.14 1147.1 1146.75 1147.06 1147.69 1147.69 1147.02 1146.59 1146.57
1146.99 1147.65 1147.65 1146.99 1146.57 1146.57 1146.99 1147.65 1147.65 1146.99
1146.57 1146.57 1146.99 1147.65 1147.65 1146.99 1146.57 1146.57 1146.99 1147.65
1147.65 1146.99 1146.57 1146.59 1147.02 1147.68 1147.69 1147.06 1146.75 1147.09
1148.14 1149.58 1150.29 
k 1 264 float
4.81168 4.81168 4.81167 4.81167 4.81167 4.81167 4.81167 4.81167 4.81167 4.81167 4.81167
4.81167 4.81167 4.81167 4.81167 4.81167 4.81167 4.81167 4.81167 4.81167 4.81167
4.81167 4.81168 4.81168 4.81167 4.81167 4.81167 4.81167 4.81167 4.81167 4.81167
4.81167 4.81167 4.81167 4.81167 4.81167 4.81167 4.81167 4.81167 4.81167 4.81167
4.81167 4.81167 4.81167 4.81168 4.81168 4.81167 4.81167 4.81167 4.81167 4.81167
4.81167 4.81167 4.81167 4.81167 4.81167 4.81167 4.81167 4.81167 4.81167 4.81167
4.81167 4.81167 4.81167 4.81167 4.81167 4.81168 4.81168 4.81167 4.81167 4.81167
4.81167 4.81167 4.81167 4.81167 4.81167 4.81167 4.81167 4.81167 4.81167 4.81167
4.81167 4.81167 4.81167 4.81167 4.81167 4.81167 4.81167 4.81168 4.81168 4.81168
4.81168 4.81168 4.81168 4.81168 4.81168 4.81168 4.81168 4.81168 4.81168 4.81168
4.81168 4.81168 4.81168 4.81168 4.81168 4.81168 4.81168 4.81168 4.81168 4.81168
4.81168 4.81168 4.81168 4.81168 4.81168 4.81168 4.81168 4.81168 4.81168 4.81168
4.81168 4.81168 4.81168 4.81168 4.81168 4.81168 4.81168 4.81168 4.81168 4.81168
4.81168 4.81168 4.81168 4.81168 4.81168 4.81168 4.81168 4.81168 4.81168 4.81168
4.81168 4.81168 4.81168 4.81168 4.81168 4.81168 4.81168 4.81168 4.81168 4.81168
4.81168 4.81168 4.81168 4.81168 4.81168 4.81168 4.81168 4.81168 4.81168 4.81168
4.81168 4.81168 4.81168 4.81168 4.81168 4.81168 4.81168 4.81168 4.81168 4.81168
4.81168 4.81168 4.81168 4.81168 4.81168 4.81167 4.81167 4.81167 4.81168 4.81168
4.81168 4.81167 4.81167 4.81168 4.81168 4.81168 4.81168 4.81167 4.81167 4.81168
4.81168 4.81168 4.81168 4.81167 4.81167 4.81168 4.81168 4.81168 4.81168 4.81167
4.81167 4.81168 4.81168 4.81168 4.81168 4.81167 4.81167 4.81168 4.81168 4.81168
4.81168 4.81167 4.81167 4.81168 4.81168 4.81168 4.81167 4.81167 4.81167 4.81167
4.81167 4.81167 4.81168 4.81168 4.81168 4.81167 4.81167 4.81168 4.81168 4.81168
4.81168 4.81167 4.81167 4.81168 4.81168 4.81168 4.81168 4.81167 4.81167 4.81168
4.81168 4.81168 4.81168 4.81167 4.81167 4.81168 4.81168 4.81168 4.81168 4.81167
4.81167 4.81168 4.81168 4.81168 4.81168 4.81167 4.81167 4.81168 4.81168 4.81168
4.81167 4.81167 4.81167 
diffO2air 1 264 float
7.74174e-06 7.74199e-06 7.74236e-06 7.74276e-06 7.74314e-06 7.74349e-06 7.74379e-06 7.74407e-06 7.74431e-06 7.74454e-06 7.74474e-06
7.74492e-06 7.74509e-06 7.74525e-06 7.74539e-06 7.74552e-06 7.74565e-06 7.74576e-06 7.74589e-06 7.74605e-06 7.74632e-06
7.74667e-06 7.74175e-06 7.742e-06 7.74236e-06 7.74277e-06 7.74315e-06 7.74349e-06 7.7438e-06 7.74407e-06 7.74432e-06
7.74454e-06 7.74475e-06 7.74493e-06 7.7451e-06 7.74525e-06 7.74539e-06 7.74553e-06 7.74565e-06 7.74577e-06 7.7459e-06
7.74606e-06 7.74633e-06 7.74668e-06 7.74173e-06 7.74198e-06 7.74235e-06 7.74276e-06 7.74314e-06 7.74348e-06 7.74379e-06
7.74406e-06 7.74431e-06 7.74454e-06 7.74474e-06 7.74492e-06 7.74509e-06 7.74524e-06 7.74539e-06 7.74552e-06 7.74564e-06
7.74576e-06 7.74589e-06 7.74605e-06 7.74632e-06 7.74667e-06 7.74174e-06 7.74199e-06 7.74236e-06 7.74276e-06 7.74315e-06
7.74349e-06 7.7438e-06 7.74407e-06 7.74432e-06 7.74454e-06 7.74474e-06 7.74493e-06 7.7451e-06 7.74525e-06 7.7454e-06
7.74553e-06 7.74565e-06 7.74577e-06 7.7459e-06 7.74606e-06 7.74632e-06 7.74668e-06 7.74174e-06 7.74091e-06 7.73962e-06
7.73914e-06 7.73912e-06 7.73951e-06 7.74052e-06 7.7405e-06 7.73949e-06 7.73908e-06 7.73908e-06 7.73948e-06 7.74048e-06
7.74047e-06 7.73947e-06 7.73907e-06 7.73907e-06 7.73946e-06 7.74046e-06 7.74046e-06 7.73946e-06 7.73906e-06 7.73906e-06
7.73946e-06 7.74046e-06 7.74046e-06 7.73947e-06 7.73907e-06 7.73907e-06 7.73947e-06 7.74048e-06 7.74048e-06 7.73948e-06
7.73908e-06 7.73908e-06 7.73949e-06 7.74049e-06 7.74052e-06 7.73951e-06 7.73911e-06 7.73913e-06 7.73961e-06 7.7409e-06
7.74173e-06 7.74175e-06 7.74092e-06 7.73962e-06 7.73914e-06 7.73912e-06 7.73952e-06 7.74052e-06 7.7405e-06 7.73949e-06
7.73909e-06 7.73908e-06 7.73948e-06 7.74048e-06 7.74048e-06 7.73948e-06 7.73907e-06 7.73907e-06 7.73947e-06 7.74047e-06
7.74047e-06 7.73947e-06 7.73907e-06 7.73907e-06 7.73947e-06 7.74047e-06 7.74047e-06 7.73947e-06 7.73907e-06 7.73907e-06
7.73948e-06 7.74048e-06 7.74049e-06 7.73949e-06 7.73909e-06 7.73909e-06 7.73949e-06 7.7405e-06 7.74052e-06 7.73952e-06
7.73912e-06 7.73914e-06 7.73962e-06 7.74091e-06 7.74174e-06 7.74667e-06 7.7461e-06 7.74502e-06 7.74422e-06 7.74392e-06
7.74407e-06 7.74442e-06 7.74442e-06 7.74403e-06 7.74378e-06 7.74377e-06 7.744e-06 7.74438e-06 7.74438e-06 7.74401e-06
7.74376e-06 7.74376e-06 7.744e-06 7.74438e-06 7.74438e-06 7.744e-06 7.74376e-06 7.74376e-06 7.744e-06 7.74438e-06