/*--------------------------------*- C++ -*----------------------------------*\
| =========                 |                                                 |
| \\      /  F ield         | OpenFOAM: The Open Source CFD Toolbox           |
|  \\    /   O peration     | Version:  4.0                                   |
|   \\  /    A nd           | Web:      www.OpenFOAM.org                      |
|    \\/     M anipulation  |                                                 |
\*---------------------------------------------------------------------------*/
FoamFile
{
    version     2.0;
    format      ascii;
    class       volScalarField;
    location    "120/electrolyte";
    object      concO2;
}
// * * * * * * * * * * * * * * * * * * * * * * * * * * * * * * * * * * * * * //

dimensions      [0 -3 0 0 1 0 0];

internalField   nonuniform List<scalar> 
4840
(
5.625179
5.625179
5.625179
5.625179
5.625179
5.652502
5.652502
5.652502
5.652502
5.652502
5.682589
5.682589
5.682589
5.682589
5.682589
5.688505
5.688505
5.688505
5.688505
5.688505
5.688564
5.688564
5.688564
5.688564
5.688564
5.684226
5.684226
5.684226
5.684226
5.684226
5.663709
5.663709
5.663709
5.663709
5.663709
5.664444
5.664444
5.664444
5.664444
5.664444
5.684507
5.684507
5.684507
5.684507
5.684507
5.688702
5.688702
5.688702
5.688702
5.688702
5.688723
5.688723
5.688723
5.688723
5.688723
5.684469
5.684469
5.684469
5.684469
5.684469
5.664284
5.664284
5.664284
5.664284
5.664284
5.664411
5.664411
5.664411
5.664411
5.664411
5.684521
5.684521
5.684521
5.684521
5.684521
5.688763
5.688763
5.688763
5.688763
5.688763
5.688759
5.688759
5.688759
5.688759
5.688759
5.684525
5.684525
5.684525
5.684525
5.684525
5.6644
5.6644
5.6644
5.6644
5.6644
5.664415
5.664415
5.664415
5.664415
5.664415
5.684531
5.684531
5.684531
5.684531
5.684531
5.688761
5.688761
5.688761
5.688761
5.688761
5.688761
5.688761
5.688761
5.688761
5.688761
5.684531
5.684531
5.684531
5.684531
5.684531
5.66441
5.66441
5.66441
5.66441
5.66441
5.664371
5.664371
5.664371
5.664371
5.664371
5.684505
5.684505
5.684505
5.684505
5.684505
5.688741
5.688741
5.688741
5.688741
5.688741
5.688746
5.688746
5.688746
5.688746
5.688746
5.684514
5.684514
5.684514
5.684514
5.684514
5.664337
5.664337
5.664337
5.664337
5.664337
5.6642
5.6642
5.6642
5.6642
5.6642
5.684418
5.684418
5.684418
5.684418
5.684418
5.688684
5.688684
5.688684
5.688684
5.688684
5.688721
5.688721
5.688721
5.688721
5.688721
5.684537
5.684537
5.684537
5.684537
5.684537
5.664496
5.664496
5.664496
5.664496
5.664496
5.663762
5.663762
5.663762
5.663762
5.663762
5.684261
5.684261
5.684261
5.684261
5.684261
5.688634
5.688634
5.688634
5.688634
5.688634
5.688625
5.688625
5.688625
5.688625
5.688625
5.682747
5.682747
5.682747
5.682747
5.682747
5.652824
5.652824
5.652824
5.652824
5.652824
5.625648
5.625648
5.625648
5.625648
5.625648
5.624404
5.624404
5.624404
5.624404
5.624404
5.649601
5.649601
5.649601
5.649601
5.649601
5.677723
5.677723
5.677723
5.677723
5.677723
5.684413
5.684413
5.684413
5.684413
5.684413
5.684471
5.684471
5.684471
5.684471
5.684471
5.679308
5.679308
5.679308
5.679308
5.679308
5.659663
5.659663
5.659663
5.659663
5.659663
5.660294
5.660294
5.660294
5.660294
5.660294
5.679622
5.679622
5.679622
5.679622
5.679622
5.684603
5.684603
5.684603
5.684603
5.684603
5.684575
5.684575
5.684575
5.684575
5.684575
5.679494
5.679494
5.679494
5.679494
5.679494
5.66002
5.66002
5.66002
5.66002
5.66002
5.660152
5.660152
5.660152
5.660152
5.660152
5.679556
5.679556
5.679556
5.679556
5.679556
5.684584
5.684584
5.684584
5.684584
5.684584
5.684543
5.684543
5.684543
5.684543
5.684543
5.679494
5.679494
5.679494
5.679494
5.679494
5.660039
5.660039
5.660039
5.660039
5.660039
5.660051
5.660051
5.660051
5.660051
5.660051
5.679499
5.679499
5.679499
5.679499
5.679499
5.684542
5.684542
5.684542
5.684542
5.684542
5.684542
5.684542
5.684542
5.684542
5.684542
5.679501
5.679501
5.679501
5.679501
5.679501
5.660051
5.660051
5.660051
5.660051
5.660051
5.660037
5.660037
5.660037
5.660037
5.660037
5.679526
5.679526
5.679526
5.679526
5.679526
5.684575
5.684575
5.684575
5.684575
5.684575
5.684582
5.684582
5.684582
5.684582
5.684582
5.679552
5.679552
5.679552
5.679552
5.679552
5.660134
5.660134
5.660134
5.660134
5.660134
5.660012
5.660012
5.660012
5.660012
5.660012
5.67949
5.67949
5.67949
5.67949
5.67949
5.684565
5.684565
5.684565
5.684565
5.684565
5.684608
5.684608
5.684608
5.684608
5.684608
5.679635
5.679635
5.679635
5.679635
5.679635
5.660316
5.660316
5.660316
5.660316
5.660316
5.659685
5.659685
5.659685
5.659685
5.659685
5.679324
5.679324
5.679324
5.679324
5.679324
5.684497
5.684497
5.684497
5.684497
5.684497
5.684456
5.684456
5.684456
5.684456
5.684456
5.677779
5.677779
5.677779
5.677779
5.677779
5.649725
5.649725
5.649725
5.649725
5.649725
5.624608
5.624608
5.624608
5.624608
5.624608
5.614964
5.614964
5.614964
5.614964
5.614964
5.639214
5.639214
5.639214
5.639214
5.639214
5.671657
5.671657
5.671657
5.671657
5.671657
5.680245
5.680245
5.680245
5.680245
5.680245
5.680443
5.680443
5.680443
5.680443
5.680443
5.674108
5.674108
5.674108
5.674108
5.674108
5.652957
5.652957
5.652957
5.652957
5.652957
5.653505
5.653505
5.653505
5.653505
5.653505
5.674453
5.674453
5.674453
5.674453
5.674453
5.680626
5.680626
5.680626
5.680626
5.680626
5.680584
5.680584
5.680584
5.680584
5.680584
5.674309
5.674309
5.674309
5.674309
5.674309
5.653299
5.653299
5.653299
5.653299
5.653299
5.653445
5.653445
5.653445
5.653445
5.653445
5.674424
5.674424
5.674424
5.674424
5.674424
5.680647
5.680647
5.680647
5.680647
5.680647
5.680631
5.680631
5.680631
5.680631
5.680631
5.674397
5.674397
5.674397
5.674397
5.674397
5.653383
5.653383
5.653383
5.653383
5.653383
5.653397
5.653397
5.653397
5.653397
5.653397
5.674404
5.674404
5.674404
5.674404
5.674404
5.680644
5.680644
5.680644
5.680644
5.680644
5.680645
5.680645
5.680645
5.680645
5.680645
5.674407
5.674407
5.674407
5.674407
5.674407
5.653399
5.653399
5.653399
5.653399
5.653399
5.653382
5.653382
5.653382
5.653382
5.653382
5.6744
5.6744
5.6744
5.6744
5.6744
5.680636
5.680636
5.680636
5.680636
5.680636
5.680646
5.680646
5.680646
5.680646
5.680646
5.674422
5.674422
5.674422
5.674422
5.674422
5.653435
5.653435
5.653435
5.653435
5.653435
5.653285
5.653285
5.653285
5.653285
5.653285
5.674298
5.674298
5.674298
5.674298
5.674298
5.680578
5.680578
5.680578
5.680578
5.680578
5.680629
5.680629
5.680629
5.680629
5.680629
5.674463
5.674463
5.674463
5.674463
5.674463
5.653521
5.653521
5.653521
5.653521
5.653521
5.652971
5.652971
5.652971
5.652971
5.652971
5.674118
5.674118
5.674118
5.674118
5.674118
5.68046
5.68046
5.68046
5.68046
5.68046
5.680276
5.680276
5.680276
5.680276
5.680276
5.67171
5.67171
5.67171
5.67171
5.67171
5.639323
5.639323
5.639323
5.639323
5.639323
5.615113
5.615113
5.615113
5.615113
5.615113
5.603134
5.603134
5.603134
5.603134
5.603134
5.626792
5.626792
5.626792
5.626792
5.626792
5.664974
5.664974
5.664974
5.664974
5.664974
5.676092
5.676092
5.676092
5.676092
5.676092
5.676549
5.676549
5.676549
5.676549
5.676549
5.668872
5.668872
5.668872
5.668872
5.668872
5.646127
5.646127
5.646127
5.646127
5.646127
5.646429
5.646429
5.646429
5.646429
5.646429
5.66935
5.66935
5.66935
5.66935
5.66935
5.676843
5.676843
5.676843
5.676843
5.676843
5.676773
5.676773
5.676773
5.676773
5.676773
5.669131
5.669131
5.669131
5.669131
5.669131
5.646345
5.646345
5.646345
5.646345
5.646345
5.646404
5.646404
5.646404
5.646404
5.646404
5.669234
5.669234
5.669234
5.669234
5.669234
5.676805
5.676805
5.676805
5.676805
5.676805
5.676786
5.676786
5.676786
5.676786
5.676786
5.669176
5.669176
5.669176
5.669176
5.669176
5.646318
5.646318
5.646318
5.646318
5.646318
5.64632
5.64632
5.64632
5.64632
5.64632
5.669148
5.669148
5.669148
5.669148
5.669148
5.67675
5.67675
5.67675
5.67675
5.67675
5.676751
5.676751
5.676751
5.676751
5.676751
5.669152
5.669152
5.669152
5.669152
5.669152
5.646322
5.646322
5.646322
5.646322
5.646322
5.646311
5.646311
5.646311
5.646311
5.646311
5.669136
5.669136
5.669136
5.669136
5.669136
5.676749
5.676749
5.676749
5.676749
5.676749
5.676802
5.676802
5.676802
5.676802
5.676802
5.669234
5.669234
5.669234
5.669234
5.669234
5.646397
5.646397
5.646397
5.646397
5.646397
5.646314
5.646314
5.646314
5.646314
5.646314
5.669105
5.669105
5.669105
5.669105
5.669105
5.676767
5.676767
5.676767
5.676767
5.676767
5.676846
5.676846
5.676846
5.676846
5.676846
5.669359
5.669359
5.669359
5.669359
5.669359
5.64644
5.64644
5.64644
5.64644
5.64644
5.646134
5.646134
5.646134
5.646134
5.646134
5.668878
5.668878
5.668878
5.668878
5.668878
5.676561
5.676561
5.676561
5.676561
5.676561
5.676117
5.676117
5.676117
5.676117
5.676117
5.665037
5.665037
5.665037
5.665037
5.665037
5.6269
5.6269
5.6269
5.6269
5.6269
5.603246
5.603246
5.603246
5.603246
5.603246
5.592052
5.592052
5.592052
5.592052
5.592052
5.616435
5.616435
5.616435
5.616435
5.616435
5.658733
5.658733
5.658733
5.658733
5.658733
5.672128
5.672128
5.672128
5.672128
5.672128
5.672914
5.672914
5.672914
5.672914
5.672914
5.664279
5.664279
5.664279
5.664279
5.664279
5.640114
5.640114
5.640114
5.640114
5.640114
5.640335
5.640335
5.640335
5.640335
5.640335
5.664829
5.664829
5.664829
5.664829
5.664829
5.673341
5.673341
5.673341
5.673341
5.673341
5.673255
5.673255
5.673255
5.673255
5.673255
5.664582
5.664582
5.664582
5.664582
5.664582
5.640304
5.640304
5.640304
5.640304
5.640304
5.640355
5.640355
5.640355
5.640355
5.640355
5.664742
5.664742
5.664742
5.664742
5.664742
5.673338
5.673338
5.673338
5.673338
5.673338
5.673317
5.673317
5.673317
5.673317
5.673317
5.664687
5.664687
5.664687
5.664687
5.664687
5.640382
5.640382
5.640382
5.640382
5.640382
5.6404
5.6404
5.6404
5.6404
5.6404
5.664706
5.664706
5.664706
5.664706
5.664706
5.673326
5.673326
5.673326
5.673326
5.673326
5.673328
5.673328
5.673328
5.673328
5.673328
5.664711
5.664711
5.664711
5.664711
5.664711
5.640404
5.640404
5.640404
5.640404
5.640404
5.640394
5.640394
5.640394
5.640394
5.640394
5.664689
5.664689
5.664689
5.664689
5.664689
5.673321
5.673321
5.673321
5.673321
5.673321
5.673351
5.673351
5.673351
5.673351
5.673351
5.664746
5.664746
5.664746
5.664746
5.664746
5.640401
5.640401
5.640401
5.640401
5.640401
5.640341
5.640341
5.640341
5.640341
5.640341
5.664607
5.664607
5.664607
5.664607
5.664607
5.673283
5.673283
5.673283
5.673283
5.673283
5.673329
5.673329
5.673329
5.673329
5.673329
5.664816
5.664816
5.664816
5.664816
5.664816
5.640316
5.640316
5.640316
5.640316
5.640316
5.64009
5.64009
5.64009
5.64009
5.64009
5.664259
5.664259
5.664259
5.664259
5.664259
5.672871
5.672871
5.672871
5.672871
5.672871
5.672061
5.672061
5.672061
5.672061
5.672061
5.658679
5.658679
5.658679
5.658679
5.658679
5.616375
5.616375
5.616375
5.616375
5.616375
5.591981
5.591981
5.591981
5.591981
5.591981
5.581828
5.581828
5.581828
5.581828
5.581828
5.607257
5.607257
5.607257
5.607257
5.607257
5.65273
5.65273
5.65273
5.65273
5.65273
5.668272
5.668272
5.668272
5.668272
5.668272
5.669537
5.669537
5.669537
5.669537
5.669537
5.660193
5.660193
5.660193
5.660193
5.660193
5.634966
5.634966
5.634966
5.634966
5.634966
5.635159
5.635159
5.635159
5.635159
5.635159
5.660755
5.660755
5.660755
5.660755
5.660755
5.670146
5.670146
5.670146
5.670146
5.670146
5.670102
5.670102
5.670102
5.670102
5.670102
5.660583
5.660583
5.660583
5.660583
5.660583
5.635222
5.635222
5.635222
5.635222
5.635222
5.63526
5.63526
5.63526
5.63526
5.63526
5.660694
5.660694
5.660694
5.660694
5.660694
5.670168
5.670168
5.670168
5.670168
5.670168
5.670151
5.670151
5.670151
5.670151
5.670151
5.660669
5.660669
5.660669
5.660669
5.660669
5.635292
5.635292
5.635292
5.635292
5.635292
5.635296
5.635296
5.635296
5.635296
5.635296
5.660682
5.660682
5.660682
5.660682
5.660682
5.670154
5.670154
5.670154
5.670154
5.670154
5.670157
5.670157
5.670157
5.670157
5.670157
5.660688
5.660688
5.660688
5.660688
5.660688
5.6353
5.6353
5.6353
5.6353
5.6353
5.635276
5.635276
5.635276
5.635276
5.635276
5.660651
5.660651
5.660651
5.660651
5.660651
5.670136
5.670136
5.670136
5.670136
5.670136
5.670161
5.670161
5.670161
5.670161
5.670161
5.660701
5.660701
5.660701
5.660701
5.660701
5.635239
5.635239
5.635239
5.635239
5.635239
5.63519
5.63519
5.63519
5.63519
5.63519
5.660554
5.660554
5.660554
5.660554
5.660554
5.67008
5.67008
5.67008
5.67008
5.67008
5.67016
5.67016
5.67016
5.67016
5.67016
5.660777
5.660777
5.660777
5.660777
5.660777
5.635186
5.635186
5.635186
5.635186
5.635186
5.634986
5.634986
5.634986
5.634986
5.634986
5.66021
5.66021
5.66021
5.66021
5.66021
5.669581
5.669581
5.669581
5.669581
5.669581
5.66835
5.66835
5.66835
5.66835
5.66835
5.652835
5.652835
5.652835
5.652835
5.652835
5.607405
5.607405
5.607405
5.607405
5.607405
5.581989
5.581989
5.581989
5.581989
5.581989
5.572948
5.572948
5.572948
5.572948
5.572948
5.599655
5.599655
5.599655
5.599655
5.599655
5.647866
5.647866
5.647866
5.647866
5.647866
5.664938
5.664938
5.664938
5.664938
5.664938
5.666603
5.666603
5.666603
5.666603
5.666603
5.656795
5.656795
5.656795
5.656795
5.656795
5.630678
5.630678
5.630678
5.630678
5.630678
5.630864
5.630864
5.630864
5.630864
5.630864
5.657369
5.657369
5.657369
5.657369
5.657369
5.66735
5.66735
5.66735
5.66735
5.66735
5.66728
5.66728
5.66728
5.66728
5.66728
5.657177
5.657177
5.657177
5.657177
5.657177
5.630887
5.630887
5.630887
5.630887
5.630887
5.630917
5.630917
5.630917
5.630917
5.630917
5.657269
5.657269
5.657269
5.657269
5.657269
5.667312
5.667312
5.667312
5.667312
5.667312
5.667271
5.667271
5.667271
5.667271
5.667271
5.657211
5.657211
5.657211
5.657211
5.657211
5.630886
5.630886
5.630886
5.630886
5.630886
5.630884
5.630884
5.630884
5.630884
5.630884
5.657203
5.657203
5.657203
5.657203
5.657203
5.667264
5.667264
5.667264
5.667264
5.667264
5.667267
5.667267
5.667267
5.667267
5.667267
5.65721
5.65721
5.65721
5.65721
5.65721
5.630889
5.630889
5.630889
5.630889
5.630889
5.630883
5.630883
5.630883
5.630883
5.630883
5.657231
5.657231
5.657231
5.657231
5.657231
5.667294
5.667294
5.667294
5.667294
5.667294
5.667314
5.667314
5.667314
5.667314
5.667314
5.657274
5.657274
5.657274
5.657274
5.657274
5.630917
5.630917
5.630917
5.630917
5.630917
5.630892
5.630892
5.630892
5.630892
5.630892
5.657178
5.657178
5.657178
5.657178
5.657178
5.667275
5.667275
5.667275
5.667275
5.667275
5.667356
5.667356
5.667356
5.667356
5.667356
5.657381
5.657381
5.657381
5.657381
5.657381
5.630879
5.630879
5.630879
5.630879
5.630879
5.630687
5.630687
5.630687
5.630687
5.630687
5.656802
5.656802
5.656802
5.656802
5.656802
5.66662
5.66662
5.66662
5.66662
5.66662
5.664971
5.664971
5.664971
5.664971
5.664971
5.647912
5.647912
5.647912
5.647912
5.647912
5.599736
5.599736
5.599736
5.599736
5.599736
5.573054
5.573054
5.573054
5.573054
5.573054
5.56514
5.56514
5.56514
5.56514
5.56514
5.593007
5.593007
5.593007
5.593007
5.593007
5.64346
5.64346
5.64346
5.64346
5.64346
5.661777
5.661777
5.661777
5.661777
5.661777
5.663813
5.663813
5.663813
5.663813
5.663813
5.653708
5.653708
5.653708
5.653708
5.653708
5.626897
5.626897
5.626897
5.626897
5.626897
5.627078
5.627078
5.627078
5.627078
5.627078
5.654277
5.654277
5.654277
5.654277
5.654277
5.664717
5.664717
5.664717
5.664717
5.664717
5.66466
5.66466
5.66466
5.66466
5.66466
5.654151
5.654151
5.654151
5.654151
5.654151
5.627175
5.627175
5.627175
5.627175
5.627175
5.627192
5.627192
5.627192
5.627192
5.627192
5.654214
5.654214
5.654214
5.654214
5.654214
5.664704
5.664704
5.664704
5.664704
5.664704
5.664695
5.664695
5.664695
5.664695
5.664695
5.65422
5.65422
5.65422
5.65422
5.65422
5.62721
5.62721
5.62721
5.62721
5.62721
5.627204
5.627204
5.627204
5.627204
5.627204
5.654208
5.654208
5.654208
5.654208
5.654208
5.664698
5.664698
5.664698
5.664698
5.664698
5.664701
5.664701
5.664701
5.664701
5.664701
5.654216
5.654216
5.654216
5.654216
5.654216
5.627209
5.627209
5.627209
5.627209
5.627209
5.627206
5.627206
5.627206
5.627206
5.627206
5.654218
5.654218
5.654218
5.654218
5.654218
5.664697
5.664697
5.664697
5.664697
5.664697
5.664706
5.664706
5.664706
5.664706
5.664706
5.65422
5.65422
5.65422
5.65422
5.65422
5.627194
5.627194
5.627194
5.627194
5.627194
5.62717
5.62717
5.62717
5.62717
5.62717
5.654143
5.654143
5.654143
5.654143
5.654143
5.664656
5.664656
5.664656
5.664656
5.664656
5.664722
5.664722
5.664722
5.664722
5.664722
5.654289
5.654289
5.654289
5.654289
5.654289
5.627092
5.627092
5.627092
5.627092
5.627092
5.626904
5.626904
5.626904
5.626904
5.626904
5.653713
5.653713
5.653713
5.653713
5.653713
5.663826
5.663826
5.663826
5.663826
5.663826
5.661807
5.661807
5.661807
5.661807
5.661807
5.643511
5.643511
5.643511
5.643511
5.643511
5.593093
5.593093
5.593093
5.593093
5.593093
5.565235
5.565235
5.565235
5.565235
5.565235
5.55836
5.55836
5.55836
5.55836
5.55836
5.587279
5.587279
5.587279
5.587279
5.587279
5.639636
5.639636
5.639636
5.639636
5.639636
5.65893
5.65893
5.65893
5.65893
5.65893
5.661292
5.661292
5.661292
5.661292
5.661292
5.651012
5.651012
5.651012
5.651012
5.651012
5.623704
5.623704
5.623704
5.623704
5.623704
5.623883
5.623883
5.623883
5.623883
5.623883
5.651579
5.651579
5.651579
5.651579
5.651579
5.662356
5.662356
5.662356
5.662356
5.662356
5.662314
5.662314
5.662314
5.662314
5.662314
5.651513
5.651513
5.651513
5.651513
5.651513
5.623976
5.623976
5.623976
5.623976
5.623976
5.623959
5.623959
5.623959
5.623959
5.623959
5.651476
5.651476
5.651476
5.651476
5.651476
5.662299
5.662299
5.662299
5.662299
5.662299
5.662301
5.662301
5.662301
5.662301
5.662301
5.651494
5.651494
5.651494
5.651494
5.651494
5.623929
5.623929
5.623929
5.623929
5.623929
5.623925
5.623925
5.623925
5.623925
5.623925
5.651474
5.651474
5.651474
5.651474
5.651474
5.662274
5.662274
5.662274
5.662274
5.662274
5.662277
5.662277
5.662277
5.662277
5.662277
5.651481
5.651481
5.651481
5.651481
5.651481
5.62393
5.62393
5.62393
5.62393
5.62393
5.623922
5.623922
5.623922
5.623922
5.623922
5.651458
5.651458
5.651458
5.651458
5.651458
5.66227
5.66227
5.66227
5.66227
5.66227
5.6623
5.6623
5.6623
5.6623
5.6623
5.651483
5.651483
5.651483
5.651483
5.651483
5.623961
5.623961
5.623961
5.623961
5.623961
5.623954
5.623954
5.623954
5.623954
5.623954
5.651491
5.651491
5.651491
5.651491
5.651491
5.662309
5.662309
5.662309
5.662309
5.662309
5.662358
5.662358
5.662358
5.662358
5.662358
5.651587
5.651587
5.651587
5.651587
5.651587
5.623892
5.623892
5.623892
5.623892
5.623892
5.623707
5.623707
5.623707
5.623707
5.623707
5.651015
5.651015
5.651015
5.651015
5.651015
5.661303
5.661303
5.661303
5.661303
5.661303
5.658958
5.658958
5.658958
5.658958
5.658958
5.639697
5.639697
5.639697
5.639697
5.639697
5.587369
5.587369
5.587369
5.587369
5.587369
5.558439
5.558439
5.558439
5.558439
5.558439
5.552457
5.552457
5.552457
5.552457
5.552457
5.582242
5.582242
5.582242
5.582242
5.582242
5.636124
5.636124
5.636124
5.636124
5.636124
5.656221
5.656221
5.656221
5.656221
5.656221
5.658859
5.658859
5.658859
5.658859
5.658859
5.648479
5.648479
5.648479
5.648479
5.648479
5.620781
5.620781
5.620781
5.620781
5.620781
5.620954
5.620954
5.620954
5.620954
5.620954
5.649024
5.649024
5.649024
5.649024
5.649024
5.660069
5.660069
5.660069
5.660069
5.660069
5.660048
5.660048
5.660048
5.660048
5.660048
5.649011
5.649011
5.649011
5.649011
5.649011
5.621078
5.621078
5.621078
5.621078
5.621078
5.621066
5.621066
5.621066
5.621066
5.621066
5.649002
5.649002
5.649002
5.649002
5.649002
5.660067
5.660067
5.660067
5.660067
5.660067
5.660079
5.660079
5.660079
5.660079
5.660079
5.649048
5.649048
5.649048
5.649048
5.649048
5.621122
5.621122
5.621122
5.621122
5.621122
5.621125
5.621125
5.621125
5.621125
5.621125
5.649027
5.649027
5.649027
5.649027
5.649027
5.660075
5.660075
5.660075
5.660075
5.660075
5.660078
5.660078
5.660078
5.660078
5.660078
5.649034
5.649034
5.649034
5.649034
5.649034
5.621131
5.621131
5.621131
5.621131
5.621131
5.621131
5.621131
5.621131
5.621131
5.621131
5.649047
5.649047
5.649047
5.649047
5.649047
5.660082
5.660082
5.660082
5.660082
5.660082
5.660081
5.660081
5.660081
5.660081
5.660081
5.649012
5.649012
5.649012
5.649012
5.649012
5.621107
5.621107
5.621107
5.621107
5.621107
5.621108
5.621108
5.621108
5.621108
5.621108
5.649027
5.649027
5.649027
5.649027
5.649027
5.660067
5.660067
5.660067
5.660067
5.660067
5.660058
5.660058
5.660058
5.660058
5.660058
5.649013
5.649013
5.649013
5.649013
5.649013
5.620936
5.620936
5.620936
5.620936
5.620936
5.620756
5.620756
5.620756
5.620756
5.620756
5.648458
5.648458
5.648458
5.648458
5.648458
5.65882
5.65882
5.65882
5.65882
5.65882
5.656169
5.656169
5.656169
5.656169
5.656169
5.636084
5.636084
5.636084
5.636084
5.636084
5.58219
5.58219
5.58219
5.58219
5.58219
5.552388
5.552388
5.552388
5.552388
5.552388
5.547144
5.547144
5.547144
5.547144
5.547144
5.57767
5.57767
5.57767
5.57767
5.57767
5.632839
5.632839
5.632839
5.632839
5.632839
5.6536
5.6536
5.6536
5.6536
5.6536
5.656531
5.656531
5.656531
5.656531
5.656531
5.646131
5.646131
5.646131
5.646131
5.646131
5.61814
5.61814
5.61814
5.61814
5.61814
5.618306
5.618306
5.618306
5.618306
5.618306
5.646664
5.646664
5.646664
5.646664
5.646664
5.65792
5.65792
5.65792
5.65792
5.65792
5.657961
5.657961
5.657961
5.657961
5.657961
5.646765
5.646765
5.646765
5.646765
5.646765
5.618538
5.618538
5.618538
5.618538
5.618538
5.618517
5.618517
5.618517
5.618517
5.618517
5.646705
5.646705
5.646705
5.646705
5.646705
5.657964
5.657964
5.657964
5.657964
5.657964
5.657989
5.657989
5.657989
5.657989
5.657989
5.646799
5.646799
5.646799
5.646799
5.646799
5.61858
5.61858
5.61858
5.61858
5.61858
5.61856
5.61856
5.61856
5.61856
5.61856
5.646726
5.646726
5.646726
5.646726
5.646726
5.657963
5.657963
5.657963
5.657963
5.657963
5.657966
5.657966
5.657966
5.657966
5.657966
5.646734
5.646734
5.646734
5.646734
5.646734
5.618564
5.618564
5.618564
5.618564
5.618564
5.618565
5.618565
5.618565
5.618565
5.618565
5.646782
5.646782
5.646782
5.646782
5.646782
5.657977
5.657977
5.657977
5.657977
5.657977
5.65796
5.65796
5.65796
5.65796
5.65796
5.646718
5.646718
5.646718
5.646718
5.646718
5.618502
5.618502
5.618502
5.618502
5.618502
5.61851
5.61851
5.61851
5.61851
5.61851
5.646738
5.646738
5.646738
5.646738
5.646738
5.657942
5.657942
5.657942
5.657942
5.657942
5.657939
5.657939
5.657939
5.657939
5.657939
5.646691
5.646691
5.646691
5.646691
5.646691
5.618339
5.618339
5.618339
5.618339
5.618339
5.618166
5.618166
5.618166
5.618166
5.618166
5.646152
5.646152
5.646152
5.646152
5.646152
5.656578
5.656578
5.656578
5.656578
5.656578
5.653683
5.653683
5.653683
5.653683
5.653683
5.632947
5.632947
5.632947
5.632947
5.632947
5.577822
5.577822
5.577822
5.577822
5.577822
5.547305
5.547305
5.547305
5.547305
5.547305
5.542707
5.542707
5.542707
5.542707
5.542707
5.573798
5.573798
5.573798
5.573798
5.573798
5.629934
5.629934
5.629934
5.629934
5.629934
5.651261
5.651261
5.651261
5.651261
5.651261
5.654453
5.654453
5.654453
5.654453
5.654453
5.644039
5.644039
5.644039
5.644039
5.644039
5.615882
5.615882
5.615882
5.615882
5.615882
5.616028
5.616028
5.616028
5.616028
5.616028
5.644548
5.644548
5.644548
5.644548
5.644548
5.655966
5.655966
5.655966
5.655966
5.655966
5.656006
5.656006
5.656006
5.656006
5.656006
5.644687
5.644687
5.644687
5.644687
5.644687
5.616266
5.616266
5.616266
5.616266
5.616266
5.616212
5.616212
5.616212
5.616212
5.616212
5.64456
5.64456
5.64456
5.64456
5.64456
5.655955
5.655955
5.655955
5.655955
5.655955
5.655968
5.655968
5.655968
5.655968
5.655968
5.644634
5.644634
5.644634
5.644634
5.644634
5.616211
5.616211
5.616211
5.616211
5.616211
5.616189
5.616189
5.616189
5.616189
5.616189
5.644576
5.644576
5.644576
5.644576
5.644576
5.65594
5.65594
5.65594
5.65594
5.65594
5.655943
5.655943
5.655943
5.655943
5.655943
5.644583
5.644583
5.644583
5.644583
5.644583
5.616194
5.616194
5.616194
5.616194
5.616194
5.616207
5.616207
5.616207
5.616207
5.616207
5.644652
5.644652
5.644652
5.644652
5.644652
5.655988
5.655988
5.655988
5.655988
5.655988
5.65596
5.65596
5.65596
5.65596
5.65596
5.64457
5.64457
5.64457
5.64457
5.64457
5.616215
5.616215
5.616215
5.616215
5.616215
5.61627
5.61627
5.61627
5.61627
5.61627
5.644686
5.644686
5.644686
5.644686
5.644686
5.656002
5.656002
5.656002
5.656002
5.656002
5.655974
5.655974
5.655974
5.655974
5.655974
5.644564
5.644564
5.644564
5.644564
5.644564
5.616047
5.616047
5.616047
5.616047
5.616047
5.615891
5.615891
5.615891
5.615891
5.615891
5.644046
5.644046
5.644046
5.644046
5.644046
5.654472
5.654472
5.654472
5.654472
5.654472
5.6513
5.6513
5.6513
5.6513
5.6513
5.629988
5.629988
5.629988
5.629988
5.629988
5.573888
5.573888
5.573888
5.573888
5.573888
5.542818
5.542818
5.542818
5.542818
5.542818
5.53876
5.53876
5.53876
5.53876
5.53876
5.57032
5.57032
5.57032
5.57032
5.57032
5.627248
5.627248
5.627248
5.627248
5.627248
5.648983
5.648983
5.648983
5.648983
5.648983
5.652391
5.652391
5.652391
5.652391
5.652391
5.642009
5.642009
5.642009
5.642009
5.642009
5.613785
5.613785
5.613785
5.613785
5.613785
5.613862
5.613862
5.613862
5.613862
5.613862
5.64251
5.64251
5.64251
5.64251
5.64251
5.654044
5.654044
5.654044
5.654044
5.654044
5.654106
5.654106
5.654106
5.654106
5.654106
5.642728
5.642728
5.642728
5.642728
5.642728
5.614233
5.614233
5.614233
5.614233
5.614233
5.614113
5.614113
5.614113
5.614113
5.614113
5.642584
5.642584
5.642584
5.642584
5.642584
5.654068
5.654068
5.654068
5.654068
5.654068
5.654109
5.654109
5.654109
5.654109
5.654109
5.642706
5.642706
5.642706
5.642706
5.642706
5.614129
5.614129
5.614129
5.614129
5.614129
5.61411
5.61411
5.61411
5.61411
5.61411
5.642663
5.642663
5.642663
5.642663
5.642663
5.654096
5.654096
5.654096
5.654096
5.654096
5.654099
5.654099
5.654099
5.654099
5.654099
5.64267
5.64267
5.64267
5.64267
5.64267
5.614115
5.614115
5.614115
5.614115
5.614115
5.614125
5.614125
5.614125
5.614125
5.614125
5.642704
5.642704
5.642704
5.642704
5.642704
5.654111
5.654111
5.654111
5.654111
5.654111
5.654073
5.654073
5.654073
5.654073
5.654073
5.642593
5.642593
5.642593
5.642593
5.642593
5.614118
5.614118
5.614118
5.614118
5.614118
5.614228
5.614228
5.614228
5.614228
5.614228
5.64272
5.64272
5.64272
5.64272
5.64272
5.654102
5.654102
5.654102
5.654102
5.654102
5.654051
5.654051
5.654051
5.654051
5.654051
5.642526
5.642526
5.642526
5.642526
5.642526
5.613877
5.613877
5.613877
5.613877
5.613877
5.613791
5.613791
5.613791
5.613791
5.613791
5.642014
5.642014
5.642014
5.642014
5.642014
5.652406
5.652406
5.652406
5.652406
5.652406
5.649017
5.649017
5.649017
5.649017
5.649017
5.627306
5.627306
5.627306
5.627306
5.627306
5.570414
5.570414
5.570414
5.570414
5.570414
5.538863
5.538863
5.538863
5.538863
5.538863
5.535199
5.535199
5.535199
5.535199
5.535199
5.567067
5.567067
5.567067
5.567067
5.567067
5.624604
5.624604
5.624604
5.624604
5.624604
5.646813
5.646813
5.646813
5.646813
5.646813
5.650451
5.650451
5.650451
5.650451
5.650451
5.640119
5.640119
5.640119
5.640119
5.640119
5.611848
5.611848
5.611848
5.611848
5.611848
5.611908
5.611908
5.611908
5.611908
5.611908
5.640592
5.640592
5.640592
5.640592
5.640592
5.65224
5.65224
5.65224
5.65224
5.65224
5.652334
5.652334
5.652334
5.652334
5.652334
5.640899
5.640899
5.640899
5.640899
5.640899
5.612269
5.612269
5.612269
5.612269
5.612269
5.612136
5.612136
5.612136
5.612136
5.612136
5.640669
5.640669
5.640669
5.640669
5.640669
5.652246
5.652246
5.652246
5.652246
5.652246
5.652299
5.652299
5.652299
5.652299
5.652299
5.640803
5.640803
5.640803
5.640803
5.640803
5.612103
5.612103
5.612103
5.612103
5.612103
5.612077
5.612077
5.612077
5.612077
5.612077
5.64072
5.64072
5.64072
5.64072
5.64072
5.652247
5.652247
5.652247
5.652247
5.652247
5.652251
5.652251
5.652251
5.652251
5.652251
5.640727
5.640727
5.640727
5.640727
5.640727
5.612082
5.612082
5.612082
5.612082
5.612082
5.612096
5.612096
5.612096
5.612096
5.612096
5.64077
5.64077
5.64077
5.64077
5.64077
5.652272
5.652272
5.652272
5.652272
5.652272
5.652248
5.652248
5.652248
5.652248
5.652248
5.640677
5.640677
5.640677
5.640677
5.640677
5.61214
5.61214
5.61214
5.61214
5.61214
5.612251
5.612251
5.612251
5.612251
5.612251
5.64088
5.64088
5.64088
5.64088
5.64088
5.652329
5.652329
5.652329
5.652329
5.652329
5.652246
5.652246
5.652246
5.652246
5.652246
5.640606
5.640606
5.640606
5.640606
5.640606
5.611918
5.611918
5.611918
5.611918
5.611918
5.611848
5.611848
5.611848
5.611848
5.611848
5.640121
5.640121
5.640121
5.640121
5.640121
5.650463
5.650463
5.650463
5.650463
5.650463
5.646843
5.646843
5.646843
5.646843
5.646843
5.624669
5.624669
5.624669
5.624669
5.624669
5.567162
5.567162
5.567162
5.567162
5.567162
5.535285
5.535285
5.535285
5.535285
5.535285
5.53197
5.53197
5.53197
5.53197
5.53197
5.564173
5.564173
5.564173
5.564173
5.564173
5.622273
5.622273
5.622273
5.622273
5.622273
5.644743
5.644743
5.644743
5.644743
5.644743
5.64854
5.64854
5.64854
5.64854
5.64854
5.638291
5.638291
5.638291
5.638291
5.638291
5.610061
5.610061
5.610061
5.610061
5.610061
5.610009
5.610009
5.610009
5.610009
5.610009
5.638738
5.638738
5.638738
5.638738
5.638738
5.650454
5.650454
5.650454
5.650454
5.650454
5.650575
5.650575
5.650575
5.650575
5.650575
5.639113
5.639113
5.639113
5.639113
5.639113
5.610424
5.610424
5.610424
5.610424
5.610424
5.610255
5.610255
5.610255
5.610255
5.610255
5.63891
5.63891
5.63891
5.63891
5.63891
5.650519
5.650519
5.650519
5.650519
5.650519
5.650577
5.650577
5.650577
5.650577
5.650577
5.639058
5.639058
5.639058
5.639058
5.639058
5.610315
5.610315
5.610315
5.610315
5.610315
5.610268
5.610268
5.610268
5.610268
5.610268
5.63899
5.63899
5.63899
5.63899
5.63899
5.650552
5.650552
5.650552
5.650552
5.650552
5.650556
5.650556
5.650556
5.650556
5.650556
5.638997
5.638997
5.638997
5.638997
5.638997
5.610274
5.610274
5.610274
5.610274
5.610274
5.610323
5.610323
5.610323
5.610323
5.610323
5.639056
5.639056
5.639056
5.639056
5.639056
5.650579
5.650579
5.650579
5.650579
5.650579
5.650532
5.650532
5.650532
5.650532
5.650532
5.638918
5.638918
5.638918
5.638918
5.638918
5.61029
5.61029
5.61029
5.61029
5.61029
5.610449
5.610449
5.610449
5.610449
5.610449
5.639127
5.639127
5.639127
5.639127
5.639127
5.650591
5.650591
5.650591
5.650591
5.650591
5.650442
5.650442
5.650442
5.650442
5.650442
5.638729
5.638729
5.638729
5.638729
5.638729
5.609988
5.609988
5.609988
5.609988
5.609988
5.610027
5.610027
5.610027
5.610027
5.610027
5.638266
5.638266
5.638266
5.638266
5.638266
5.648503
5.648503
5.648503
5.648503
5.648503