/*--------------------------------*- C++ -*----------------------------------*\
| =========                 |                                                 |
| \\      /  F ield         | OpenFOAM: The Open Source CFD Toolbox           |
|  \\    /   O peration     | Version:  4.0                                   |
|   \\  /    A nd           | Web:      www.OpenFOAM.org                      |
|    \\/     M anipulation  |                                                 |
\*---------------------------------------------------------------------------*/
FoamFile
{
    version     2.0;
    format      ascii;
    class       volScalarField;
    location    "120/electrolyte";
    object      electrochemicalHeating;
}
// * * * * * * * * * * * * * * * * * * * * * * * * * * * * * * * * * * * * * //

dimensions      [0 0 0 0 0 0 0];

internalField   nonuniform List<scalar> 
4840
(
91341.86
91341.86
91341.86
91341.86
91341.86
91014.12
91014.12
91014.12
91014.12
91014.12
90629.01
90629.01
90629.01
90629.01
90629.01
90723.46
90723.46
90723.46
90723.46
90723.46
91098.08
91098.08
91098.08
91098.08
91098.08
90985.81
90985.81
90985.81
90985.81
90985.81
91236.12
91236.12
91236.12
91236.12
91236.12
91307.44
91307.44
91307.44
91307.44
91307.44
91049.47
91049.47
91049.47
91049.47
91049.47
91443.85
91443.85
91443.85
91443.85
91443.85
91923.85
91923.85
91923.85
91923.85
91923.85
91195.46
91195.46
91195.46
91195.46
91195.46
91486.6
91486.6
91486.6
91486.6
91486.6
91529.29
91529.29
91529.29
91529.29
91529.29
91270.26
91270.26
91270.26
91270.26
91270.26
91928.35
91928.35
91928.35
91928.35
91928.35
91980.35
91980.35
91980.35
91980.35
91980.35
91288.64
91288.64
91288.64
91288.64
91288.64
91546.13
91546.13
91546.13
91546.13
91546.13
91558.98
91558.98
91558.98
91558.98
91558.98
91311.98
91311.98
91311.98
91311.98
91311.98
92033.54
92033.54
92033.54
92033.54
92033.54
92025.19
92025.19
92025.19
92025.19
92025.19
91310.5
91310.5
91310.5
91310.5
91310.5
91553.57
91553.57
91553.57
91553.57
91553.57
91546.59
91546.59
91546.59
91546.59
91546.59
91289.72
91289.72
91289.72
91289.72
91289.72
91978.96
91978.96
91978.96
91978.96
91978.96
91927.42
91927.42
91927.42
91927.42
91927.42
91265.68
91265.68
91265.68
91265.68
91265.68
91527.01
91527.01
91527.01
91527.01
91527.01
91485.29
91485.29
91485.29
91485.29
91485.29
91193.27
91193.27
91193.27
91193.27
91193.27
91914.59
91914.59
91914.59
91914.59
91914.59
91442.04
91442.04
91442.04
91442.04
91442.04
91047.81
91047.81
91047.81
91047.81
91047.81
91306.63
91306.63
91306.63
91306.63
91306.63
91235.82
91235.82
91235.82
91235.82
91235.82
90983.28
90983.28
90983.28
90983.28
90983.28
91094.64
91094.64
91094.64
91094.64
91094.64
90713.3
90713.3
90713.3
90713.3
90713.3
90624.46
90624.46
90624.46
90624.46
90624.46
91008.39
91008.39
91008.39
91008.39
91008.39
91334.34
91334.34
91334.34
91334.34
91334.34
91808.94
91808.94
91808.94
91808.94
91808.94
92704.71
92704.71
92704.71
92704.71
92704.71
93529.92
93529.92
93529.92
93529.92
93529.92
93742.68
93742.68
93742.68
93742.68
93742.68
93432.58
93432.58
93432.58
93432.58
93432.58
93329.46
93329.46
93329.46
93329.46
93329.46
92232.84
92232.84
92232.84
92232.84
92232.84
92872.24
92872.24
92872.24
92872.24
92872.24
93828.83
93828.83
93828.83
93828.83
93828.83
93784.69
93784.69
93784.69
93784.69
93784.69
93762.02
93762.02
93762.02
93762.02
93762.02
93794.32
93794.32
93794.32
93794.32
93794.32
92697.15
92697.15
92697.15
92697.15
92697.15
92903.53
92903.53
92903.53
92903.53
92903.53
93915.75
93915.75
93915.75
93915.75
93915.75
93836.75
93836.75
93836.75
93836.75
93836.75
93827.4
93827.4
93827.4
93827.4
93827.4
93886.75
93886.75
93886.75
93886.75
93886.75
92824.57
92824.57
92824.57
92824.57
92824.57
92876.77
92876.77
92876.77
92876.77
92876.77
93912.24
93912.24
93912.24
93912.24
93912.24
93841.75
93841.75
93841.75
93841.75
93841.75
93839.46
93839.46
93839.46
93839.46
93839.46
93911
93911
93911
93911
93911
92875.42
92875.42
92875.42
92875.42
92875.42
92826.49
92826.49
92826.49
92826.49
92826.49
93884.23
93884.23
93884.23
93884.23
93884.23
93824.32
93824.32
93824.32
93824.32
93824.32
93836.39
93836.39
93836.39
93836.39
93836.39
93915.25
93915.25
93915.25
93915.25
93915.25
92902.99
92902.99
92902.99
92902.99
92902.99
92694.05
92694.05
92694.05
92694.05
92694.05
93791.32
93791.32
93791.32
93791.32
93791.32
93766.44
93766.44
93766.44
93766.44
93766.44
93784.82
93784.82
93784.82
93784.82
93784.82
93830.39
93830.39
93830.39
93830.39
93830.39
92873.15
92873.15
92873.15
92873.15
92873.15
92233.91
92233.91
92233.91
92233.91
92233.91
93329.88
93329.88
93329.88
93329.88
93329.88
93431.21
93431.21
93431.21
93431.21
93431.21
93740.13
93740.13
93740.13
93740.13
93740.13
93530.68
93530.68
93530.68
93530.68
93530.68
92705.33
92705.33
92705.33
92705.33
92705.33
91805.52
91805.52
91805.52
91805.52
91805.52
92209.18
92209.18
92209.18
92209.18
92209.18
92960.21
92960.21
92960.21
92960.21
92960.21
93750.91
93750.91
93750.91
93750.91
93750.91
93526.22
93526.22
93526.22
93526.22
93526.22
92867.06
92867.06
92867.06
92867.06
92867.06
92930.3
92930.3
92930.3
92930.3
92930.3
92215.42
92215.42
92215.42
92215.42
92215.42
92775.64
92775.64
92775.64
92775.64
92775.64
93647.6
93647.6
93647.6
93647.6
93647.6
93290.86
93290.86
93290.86
93290.86
93290.86
93175.92
93175.92
93175.92
93175.92
93175.92
93480.91
93480.91
93480.91
93480.91
93480.91
92478.66
92478.66
92478.66
92478.66
92478.66
92721.02
92721.02
92721.02
92721.02
92721.02
93656.47
93656.47
93656.47
93656.47
93656.47
93246.49
93246.49
93246.49
93246.49
93246.49
93204.69
93204.69
93204.69
93204.69
93204.69
93580.45
93580.45
93580.45
93580.45
93580.45
92599.35
92599.35
92599.35
92599.35
92599.35
92668.9
92668.9
92668.9
92668.9
92668.9
93623.77
93623.77
93623.77
93623.77
93623.77
93222.38
93222.38
93222.38
93222.38
93222.38
93220.29
93220.29
93220.29
93220.29
93220.29
93622.42
93622.42
93622.42
93622.42
93622.42
92667
92667
92667
92667
92667
92601.58
92601.58
92601.58
92601.58
92601.58
93582.73
93582.73
93582.73
93582.73
93582.73
93205.99
93205.99
93205.99
93205.99
93205.99
93246.54
93246.54
93246.54
93246.54
93246.54
93656.14
93656.14
93656.14
93656.14
93656.14
92721
92721
92721
92721
92721
92478.84
92478.84
92478.84
92478.84
92478.84
93481.23
93481.23
93481.23
93481.23
93481.23
93175.1
93175.1
93175.1
93175.1
93175.1
93291.59
93291.59
93291.59
93291.59
93291.59
93648
93648
93648
93648
93648
92775.95
92775.95
92775.95
92775.95
92775.95
92216.33
92216.33
92216.33
92216.33
92216.33
92932.92
92932.92
92932.92
92932.92
92932.92
92867.37
92867.37
92867.37
92867.37
92867.37
93524.19
93524.19
93524.19
93524.19
93524.19
93750.78
93750.78
93750.78
93750.78
93750.78
92960.23
92960.23
92960.23
92960.23
92960.23
92209.5
92209.5
92209.5
92209.5
92209.5
92212.64
92212.64
92212.64
92212.64
92212.64
92808.89
92808.89
92808.89
92808.89
92808.89
93587.41
93587.41
93587.41
93587.41
93587.41
93261.34
93261.34
93261.34
93261.34
93261.34
92437.04
92437.04
92437.04
92437.04
92437.04
92538.88
92538.88
92538.88
92538.88
92538.88
91927.25
91927.25
91927.25
91927.25
91927.25
92505.86
92505.86
92505.86
92505.86
92505.86
93317.25
93317.25
93317.25
93317.25
93317.25
92852.05
92852.05
92852.05
92852.05
92852.05
92706.96
92706.96
92706.96
92706.96
92706.96
93091.05
93091.05
93091.05
93091.05
93091.05
92203.24
92203.24
92203.24
92203.24
92203.24
92438.15
92438.15
92438.15
92438.15
92438.15
93292.76
93292.76
93292.76
93292.76
93292.76
92784.85
92784.85
92784.85
92784.85
92784.85
92745.61
92745.61
92745.61
92745.61
92745.61
93207.72
93207.72
93207.72
93207.72
93207.72
92325.59
92325.59
92325.59
92325.59
92325.59
92393.71
92393.71
92393.71
92393.71
92393.71
93259.66
93259.66
93259.66
93259.66
93259.66
92768.99
92768.99
92768.99
92768.99
92768.99
92767.24
92767.24
92767.24
92767.24
92767.24
93258.34
93258.34
93258.34
93258.34
93258.34
92391.73
92391.73
92391.73
92391.73
92391.73
92327.78
92327.78
92327.78
92327.78
92327.78
93214.29
93214.29
93214.29
93214.29
93214.29
92751.06
92751.06
92751.06
92751.06
92751.06
92785.49
92785.49
92785.49
92785.49
92785.49
93292.68
93292.68
93292.68
93292.68
93292.68
92438.26
92438.26
92438.26
92438.26
92438.26
92206.96
92206.96
92206.96
92206.96
92206.96
93095.02
93095.02
93095.02
93095.02
93095.02
92705.21
92705.21
92705.21
92705.21
92705.21
92851.48
92851.48
92851.48
92851.48
92851.48
93316.24
93316.24
93316.24
93316.24
93316.24
92505.47
92505.47
92505.47
92505.47
92505.47
91927.44
91927.44
91927.44
91927.44
91927.44
92542.86
92542.86
92542.86
92542.86
92542.86
92438.1
92438.1
92438.1
92438.1
92438.1
93260.46
93260.46
93260.46
93260.46
93260.46
93584.46
93584.46
93584.46
93584.46
93584.46
92806.86
92806.86
92806.86
92806.86
92806.86
92215.57
92215.57
92215.57
92215.57
92215.57
91919.53
91919.53
91919.53
91919.53
91919.53
92571.81
92571.81
92571.81
92571.81
92571.81
93280.1
93280.1
93280.1
93280.1
93280.1
92931.82
92931.82
92931.82
92931.82
92931.82
92094
92094
92094
92094
92094
92140.74
92140.74
92140.74
92140.74
92140.74
91756.05
91756.05
91756.05
91756.05
91756.05
92277.98
92277.98
92277.98
92277.98
92277.98
92972.25
92972.25
92972.25
92972.25
92972.25
92494.42
92494.42
92494.42
92494.42
92494.42
92322.29
92322.29
92322.29
92322.29
92322.29
92659.77
92659.77
92659.77
92659.77
92659.77
92008.97
92008.97
92008.97
92008.97
92008.97
92191.06
92191.06
92191.06
92191.06
92191.06
92902.42
92902.42
92902.42
92902.42
92902.42
92413.26
92413.26
92413.26
92413.26
92413.26
92367.61
92367.61
92367.61
92367.61
92367.61
92787.88
92787.88
92787.88
92787.88
92787.88
92105.06
92105.06
92105.06
92105.06
92105.06
92154.14
92154.14
92154.14
92154.14
92154.14
92842.49
92842.49
92842.49
92842.49
92842.49
92384.67
92384.67
92384.67
92384.67
92384.67
92383.15
92383.15
92383.15
92383.15
92383.15
92841.06
92841.06
92841.06
92841.06
92841.06
92157.42
92157.42
92157.42
92157.42
92157.42
92108.17
92108.17
92108.17
92108.17
92108.17
92791.22
92791.22
92791.22
92791.22
92791.22
92369.95
92369.95
92369.95
92369.95
92369.95
92414.8
92414.8
92414.8
92414.8
92414.8
92905.95
92905.95
92905.95
92905.95
92905.95
92192.62
92192.62
92192.62
92192.62
92192.62
92011.14
92011.14
92011.14
92011.14
92011.14
92662.23
92662.23
92662.23
92662.23
92662.23
92323.62
92323.62
92323.62
92323.62
92323.62
92497.33
92497.33
92497.33
92497.33
92497.33
92973.57
92973.57
92973.57
92973.57
92973.57
92279.26
92279.26
92279.26
92279.26
92279.26
91757.58
91757.58
91757.58
91757.58
91757.58
92144.59
92144.59
92144.59
92144.59
92144.59
92094.44
92094.44
92094.44
92094.44
92094.44
92934.95
92934.95
92934.95
92934.95
92934.95
93284.33
93284.33
93284.33
93284.33
93284.33
92576.96
92576.96
92576.96
92576.96
92576.96
91925.05
91925.05
91925.05
91925.05
91925.05
91683.01
91683.01
91683.01
91683.01
91683.01
92354.58
92354.58
92354.58
92354.58
92354.58
92978.2
92978.2
92978.2
92978.2
92978.2
92654.64
92654.64
92654.64
92654.64
92654.64
91822.96
91822.96
91822.96
91822.96
91822.96
91840.16
91840.16
91840.16
91840.16
91840.16
91516.85
91516.85
91516.85
91516.85
91516.85
92057.2
92057.2
92057.2
92057.2
92057.2
92676.51
92676.51
92676.51
92676.51
92676.51
92201.29
92201.29
92201.29
92201.29
92201.29
91986.14
91986.14
91986.14
91986.14
91986.14
92331.92
92331.92
92331.92
92331.92
92331.92
91754.77
91754.77
91754.77
91754.77
91754.77
91940.01
91940.01
91940.01
91940.01
91940.01
92583.35
92583.35
92583.35
92583.35
92583.35
92089.94
92089.94
92089.94
92089.94
92089.94
92038.75
92038.75
92038.75
92038.75
92038.75
92458.2
92458.2
92458.2
92458.2
92458.2
91849.31
91849.31
91849.31
91849.31
91849.31
91904.44
91904.44
91904.44
91904.44
91904.44
92519.38
92519.38
92519.38
92519.38
92519.38
92060.54
92060.54
92060.54
92060.54
92060.54
92059.26
92059.26
92059.26
92059.26
92059.26
92518.1
92518.1
92518.1
92518.1
92518.1
91902.85
91902.85
91902.85
91902.85
91902.85
91850.63
91850.63
91850.63
91850.63
91850.63
92460.08
92460.08
92460.08
92460.08
92460.08
92039.84
92039.84
92039.84
92039.84
92039.84
92090.2
92090.2
92090.2
92090.2
92090.2
92578.03
92578.03
92578.03
92578.03
92578.03
91944.44
91944.44
91944.44
91944.44
91944.44
91759.64
91759.64
91759.64
91759.64
91759.64
92337.19
92337.19
92337.19
92337.19
92337.19
91990.48
91990.48
91990.48
91990.48
91990.48
92193.43
92193.43
92193.43
92193.43
92193.43
92668.54
92668.54
92668.54
92668.54
92668.54
92049.46
92049.46
92049.46
92049.46
92049.46
91509.28
91509.28
91509.28
91509.28
91509.28
91835.01
91835.01
91835.01
91835.01
91835.01
91815.77
91815.77
91815.77
91815.77
91815.77
92632.79
92632.79
92632.79
92632.79
92632.79
92957.17
92957.17
92957.17
92957.17
92957.17
92334.61
92334.61
92334.61
92334.61
92334.61
91663.31
91663.31
91663.31
91663.31
91663.31
91433.53
91433.53
91433.53
91433.53
91433.53
92119.58
92119.58
92119.58
92119.58
92119.58
92647.45
92647.45
92647.45
92647.45
92647.45
92374.62
92374.62
92374.62
92374.62
92374.62
91570.08
91570.08
91570.08
91570.08
91570.08
91542.25
91542.25
91542.25
91542.25
91542.25
91267.27
91267.27
91267.27
91267.27
91267.27
91830.82
91830.82
91830.82
91830.82
91830.82
92369.83
92369.83
92369.83
92369.83
92369.83
91919.47
91919.47
91919.47
91919.47
91919.47
91692.69
91692.69
91692.69
91692.69
91692.69
92042.05
92042.05
92042.05
92042.05
92042.05
91507.4
91507.4
91507.4
91507.4
91507.4
91714.75
91714.75
91714.75
91714.75
91714.75
92284.51
92284.51
92284.51
92284.51
92284.51
91813.46
91813.46
91813.46
91813.46
91813.46
91768.51
91768.51
91768.51
91768.51
91768.51
92179.66
92179.66
92179.66
92179.66
92179.66
91628.15
91628.15
91628.15
91628.15
91628.15
91684.16
91684.16
91684.16
91684.16
91684.16
92240
92240
92240
92240
92240
91792.18
91792.18
91792.18
91792.18
91792.18
91791.1
91791.1
91791.1
91791.1
91791.1
92238.12
92238.12
92238.12
92238.12
92238.12
91682.55
91682.55
91682.55
91682.55
91682.55
91628.35
91628.35
91628.35
91628.35
91628.35
92168.2
92168.2
92168.2
92168.2
92168.2
91756.45
91756.45
91756.45
91756.45
91756.45
91812.34
91812.34
91812.34
91812.34
91812.34
92282.34
92282.34
92282.34
92282.34
92282.34
91713.25
91713.25
91713.25
91713.25
91713.25
91503.84
91503.84
91503.84
91503.84
91503.84
92039.09
92039.09
92039.09
92039.09
92039.09
91690.02
91690.02
91690.02
91690.02
91690.02
91917.46
91917.46
91917.46
91917.46
91917.46
92367.25
92367.25
92367.25
92367.25
92367.25
91828.61
91828.61
91828.61
91828.61
91828.61
91265.09
91265.09
91265.09
91265.09
91265.09
91543.34
91543.34
91543.34
91543.34
91543.34
91568.05
91568.05
91568.05
91568.05
91568.05
92371.53
92371.53
92371.53
92371.53
92371.53
92646.96
92646.96
92646.96
92646.96
92646.96
92120.11
92120.11
92120.11
92120.11
92120.11
91430.63
91430.63
91430.63
91430.63
91430.63
91209.14
91209.14
91209.14
91209.14
91209.14
91912.33
91912.33
91912.33
91912.33
91912.33
92386.12
92386.12
92386.12
92386.12
92386.12
92155.71
92155.71
92155.71
92155.71
92155.71
91392.23
91392.23
91392.23
91392.23
91392.23
91323.17
91323.17
91323.17
91323.17
91323.17
91068.81
91068.81
91068.81
91068.81
91068.81
91655.3
91655.3
91655.3
91655.3
91655.3
92134.24
92134.24
92134.24
92134.24
92134.24
91707.03
91707.03
91707.03
91707.03
91707.03
91462.58
91462.58
91462.58
91462.58
91462.58
91811.19
91811.19
91811.19
91811.19
91811.19
91281.47
91281.47
91281.47
91281.47
91281.47
91512.95
91512.95
91512.95
91512.95
91512.95
92033.24
92033.24
92033.24
92033.24
92033.24
91577.33
91577.33
91577.33
91577.33
91577.33
91516.3
91516.3
91516.3
91516.3
91516.3
91921.6
91921.6
91921.6
91921.6
91921.6
91391.81
91391.81
91391.81
91391.81
91391.81
91454.76
91454.76
91454.76
91454.76
91454.76
91979.51
91979.51
91979.51
91979.51
91979.51
91540.37
91540.37
91540.37
91540.37
91540.37
91539.42
91539.42
91539.42
91539.42
91539.42
91978.35
91978.35
91978.35
91978.35
91978.35
91454.11
91454.11
91454.11
91454.11
91454.11
91392.46
91392.46
91392.46
91392.46
91392.46
91923.09
91923.09
91923.09
91923.09
91923.09
91517.26
91517.26
91517.26
91517.26
91517.26
91577.15
91577.15
91577.15
91577.15
91577.15
92031.82
92031.82
92031.82
92031.82
92031.82
91512.45
91512.45
91512.45
91512.45
91512.45
91281.27
91281.27
91281.27
91281.27
91281.27
91812.16
91812.16
91812.16
91812.16
91812.16
91462.47
91462.47
91462.47
91462.47
91462.47
91707.26
91707.26
91707.26
91707.26
91707.26
92133.72
92133.72
92133.72
92133.72
92133.72
91655.49
91655.49
91655.49
91655.49
91655.49
91068.96
91068.96
91068.96
91068.96
91068.96
91325.1
91325.1
91325.1
91325.1
91325.1
91391.25
91391.25
91391.25
91391.25
91391.25
92154
92154
92154
92154
92154
92385
92385
92385
92385
92385
91912.24
91912.24
91912.24
91912.24
91912.24
91208.93
91208.93
91208.93
91208.93
91208.93
90996.85
90996.85
90996.85
90996.85
90996.85
91709.8
91709.8
91709.8
91709.8
91709.8
92129.3
92129.3
92129.3
92129.3
92129.3
91928.8
91928.8
91928.8
91928.8
91928.8
91210.77
91210.77
91210.77
91210.77
91210.77
91117.98
91117.98
91117.98
91117.98
91117.98
90845.62
90845.62
90845.62
90845.62
90845.62
91467.19
91467.19
91467.19
91467.19
91467.19
91894.11
91894.11
91894.11
91894.11
91894.11
91495.31
91495.31
91495.31
91495.31
91495.31
91238.41
91238.41
91238.41
91238.41
91238.41
91578.57
91578.57
91578.57
91578.57
91578.57
91074.91
91074.91
91074.91
91074.91
91074.91
91320.24
91320.24
91320.24
91320.24
91320.24
91813.4
91813.4
91813.4
91813.4
91813.4
91372.81
91372.81
91372.81
91372.81
91372.81
91310.02
91310.02
91310.02
91310.02
91310.02
91711.5
91711.5
91711.5
91711.5
91711.5
91199.27
91199.27
91199.27
91199.27
91199.27
91263.44
91263.44
91263.44
91263.44
91263.44
91777.4
91777.4
91777.4
91777.4
91777.4
91348.67
91348.67
91348.67
91348.67
91348.67
91347.83
91347.83
91347.83
91347.83
91347.83
91776.86
91776.86
91776.86
91776.86
91776.86
91263.38
91263.38
91263.38
91263.38
91263.38
91200.59
91200.59
91200.59
91200.59
91200.59
91725.84
91725.84
91725.84
91725.84
91725.84
91323.74
91323.74
91323.74
91323.74
91323.74
91373.6
91373.6
91373.6
91373.6
91373.6
91812.82
91812.82
91812.82
91812.82
91812.82
91320.6
91320.6
91320.6
91320.6
91320.6
91078.06
91078.06
91078.06
91078.06
91078.06
91582.93
91582.93
91582.93
91582.93
91582.93
91240.68
91240.68
91240.68
91240.68
91240.68
91497.72
91497.72
91497.72
91497.72
91497.72
91895.56
91895.56
91895.56
91895.56
91895.56
91469.34
91469.34
91469.34
91469.34
91469.34
90847.72
90847.72
90847.72
90847.72
90847.72
91120.68
91120.68
91120.68
91120.68
91120.68
91211.01
91211.01
91211.01
91211.01
91211.01
91928.4
91928.4
91928.4
91928.4
91928.4
92127.38
92127.38
92127.38
92127.38
92127.38
91708.93
91708.93
91708.93
91708.93
91708.93
90999.36
90999.36
90999.36
90999.36
90999.36
90804.3
90804.3
90804.3
90804.3
90804.3
91514.24
91514.24
91514.24
91514.24
91514.24
91910.29
91910.29
91910.29
91910.29
91910.29
91736.89
91736.89
91736.89
91736.89
91736.89
91076.95
91076.95
91076.95
91076.95
91076.95
90977.34
90977.34
90977.34
90977.34
90977.34
90679.07
90679.07
90679.07
90679.07
90679.07
91300.31
91300.31
91300.31
91300.31
91300.31
91704.15
91704.15
91704.15
91704.15
91704.15
91336.17
91336.17
91336.17
91336.17
91336.17
91070.13
91070.13
91070.13
91070.13
91070.13
91394.88
91394.88
91394.88
91394.88
91394.88
90902.14
90902.14
90902.14
90902.14
90902.14
91147.07
91147.07
91147.07
91147.07
91147.07
91621.57
91621.57
91621.57
91621.57
91621.57
91197.71
91197.71
91197.71
91197.71
91197.71
91131.76
91131.76
91131.76
91131.76
91131.76
91520.24
91520.24
91520.24
91520.24
91520.24
91001.03
91001.03
91001.03
91001.03
91001.03
91060.71
91060.71
91060.71
91060.71
91060.71
91577.91
91577.91
91577.91
91577.91
91577.91
91159.35
91159.35
91159.35
91159.35
91159.35
91158.62
91158.62
91158.62
91158.62
91158.62
91576.66
91576.66
91576.66
91576.66
91576.66
91060.29
91060.29
91060.29
91060.29
91060.29
91001.59
91001.59
91001.59
91001.59
91001.59
91521.44
91521.44
91521.44
91521.44
91521.44
91132.15
91132.15
91132.15
91132.15
91132.15
91197.32
91197.32
91197.32
91197.32
91197.32
91624.3
91624.3
91624.3
91624.3
91624.3
91141.48
91141.48
91141.48
91141.48
91141.48
90897.25
90897.25
90897.25
90897.25
90897.25
91390.56
91390.56
91390.56
91390.56
91390.56
91065.34
91065.34
91065.34
91065.34
91065.34
91344.34
91344.34
91344.34
91344.34
91344.34
91710.41
91710.41
91710.41
91710.41
91710.41
91307.27
91307.27
91307.27
91307.27
91307.27
90686.87
90686.87
90686.87
90686.87
90686.87
90986.06
90986.06
90986.06
90986.06
90986.06
91082.85
91082.85
91082.85
91082.85
91082.85
91755.17
91755.17
91755.17
91755.17
91755.17
91928.67
91928.67
91928.67
91928.67
91928.67
91533.52
91533.52
91533.52
91533.52
91533.52
90823.44
90823.44
90823.44
90823.44
90823.44
90628.18
90628.18
90628.18
90628.18
90628.18
91330.15
91330.15
91330.15
91330.15
91330.15
91711.31
91711.31
91711.31
91711.31
91711.31
91561.24
91561.24
91561.24
91561.24
91561.24
90930.93
90930.93
90930.93
90930.93
90930.93
90830.06
90830.06
90830.06
90830.06
90830.06
90511.8
90511.8
90511.8
90511.8
90511.8
91099.71
91099.71
91099.71
91099.71
91099.71
91497.39
91497.39
91497.39
91497.39
91497.39
91165.69
91165.69
91165.69
91165.69
91165.69
90875.29
90875.29
90875.29
90875.29
90875.29
91185.75
91185.75
91185.75
91185.75
91185.75
90690.02
90690.02
90690.02
90690.02
90690.02
90934.64
90934.64
90934.64
90934.64
90934.64
91419.45
91419.45
91419.45
91419.45
91419.45
91013.7
91013.7
91013.7
91013.7
91013.7
90939.31
90939.31
90939.31
90939.31
90939.31
91307.85
91307.85
91307.85
91307.85
91307.85
90797.48
90797.48
90797.48
90797.48
90797.48
90854.24
90854.24
90854.24
90854.24
90854.24
91382.01
91382.01
91382.01
91382.01
91382.01
90973.89
90973.89
90973.89
90973.89
90973.89
90973.51
90973.51
90973.51
90973.51
90973.51
91380.82
91380.82
91380.82
91380.82
91380.82
90854.3
90854.3
90854.3
90854.3
90854.3
90797.24
90797.24
90797.24
90797.24
90797.24
91307.78
91307.78
91307.78
91307.78
91307.78
90938.45
90938.45
90938.45
90938.45
90938.45
91012.12
91012.12
91012.12
91012.12
91012.12
91413.76
91413.76
91413.76
91413.76
91413.76
90947.07
90947.07
90947.07
90947.07
90947.07
90703.06
90703.06
90703.06
90703.06
90703.06
91200.05
91200.05
91200.05
91200.05
91200.05
90888.84
90888.84
90888.84
90888.84
90888.84
91157.19
91157.19
91157.19
91157.19
91157.19
91485.26
91485.26
91485.26
91485.26
91485.26
91088.22
91088.22
91088.22
91088.22
91088.22
90501.02
90501.02
90501.02
90501.02
90501.02
90820.1
90820.1
90820.1
90820.1
90820.1
90914.24
90914.24
90914.24
90914.24
90914.24
91526.01
91526.01
91526.01
91526.01
91526.01
91675.73
91675.73
91675.73
91675.73
91675.73
91295.52
91295.52
91295.52
91295.52
91295.52
90594.03
90594.03
90594.03
90594.03
90594.03
90422.5
90422.5
90422.5
90422.5
90422.5
91105.16
91105.16
91105.16
91105.16
91105.16
91477.31
91477.31
91477.31
91477.31
91477.31
91357.58
91357.58
91357.58
91357.58
91357.58
90771.51
90771.51
90771.51
90771.51
90771.51
90658.29
90658.29
90658.29
90658.29
90658.29
90332.19
90332.19
90332.19
90332.19
90332.19
90888.71
90888.71
90888.71
90888.71
90888.71
91281.34
91281.34
91281.34
91281.34
91281.34
90983.44
90983.44
90983.44
90983.44
90983.44
90721.07
90721.07
90721.07
90721.07
90721.07
91025.8
91025.8
91025.8
91025.8
91025.8
90517.49
90517.49
90517.49
90517.49
90517.49
90748.91
90748.91
90748.91
90748.91
90748.91
91244.93
91244.93
91244.93
91244.93
91244.93
90865.41
90865.41
90865.41
90865.41
90865.41
90799.14
90799.14
90799.14
90799.14
90799.14
91150.37
91150.37
91150.37
91150.37
91150.37
90638.66
90638.66
90638.66
90638.66
90638.66
90695.32
90695.32
90695.32
90695.32
90695.32
91233.25
91233.25
91233.25
91233.25
91233.25
90837.87
90837.87
90837.87
90837.87
90837.87
90837.79
90837.79
90837.79
90837.79
90837.79
91231.2
91231.2
91231.2
91231.2
91231.2
90693.37
90693.37
90693.37
90693.37
90693.37
90638.97
90638.97
90638.97
90638.97
90638.97
91133.32
91133.32
91133.32
91133.32
91133.32
90781.55
90781.55
90781.55
90781.55
90781.55
90864.19
90864.19
90864.19
90864.19
90864.19
91241.01
91241.01
91241.01
91241.01
91241.01
90746.41
90746.41
90746.41
90746.41
90746.41
90514.25
90514.25
90514.25
90514.25
90514.25
91023.42
91023.42
91023.42
91023.42
91023.42
90719.16
90719.16
90719.16
90719.16
90719.16
90981.37
90981.37
90981.37
90981.37
90981.37
91278.68
91278.68
91278.68
91278.68
91278.68
90887.08
90887.08
90887.08
90887.08
90887.08
90330.19
90330.19
90330.19
90330.19
90330.19
90658.18
90658.18
90658.18
90658.18
90658.18
90770.57
90770.57
90770.57
90770.57
90770.57
91355.95
91355.95
91355.95
91355.95
91355.95
91477.5
91477.5
91477.5
91477.5
91477.5
91105.77
91105.77
91105.77
91105.77
91105.77
90419.84
90419.84
90419.84
90419.84
90419.84
90257.06
90257.06
90257.06
90257.06
90257.06
90911.24
90911.24
90911.24
90911.24
90911.24
91303.65
91303.65
91303.65
91303.65
91303.65
91223.2
91223.2
91223.2
91223.2
91223.2
90690.97
90690.97
90690.97
90690.97
90690.97
90533.95
90533.95
90533.95
90533.95
90533.95
90205.28
90205.28
90205.28
90205.28
90205.28
90725.89
90725.89
90725.89
90725.89
90725.89
91120.27
91120.27
91120.27
91120.27
91120.27
90853.13
90853.13
90853.13
90853.13
90853.13
90608.94
90608.94
90608.94
90608.94
90608.94
90906.19
90906.19
90906.19
90906.19
90906.19
90365.05
90365.05
90365.05
90365.05
90365.05
90574.92
90574.92
90574.92
90574.92
90574.92
91080.27
91080.27
91080.27
91080.27
91080.27
90727.98
90727.98
90727.98
90727.98
90727.98
90647.14
90647.14
90647.14
90647.14
90647.14
90987.57
90987.57
90987.57
90987.57
90987.57
90456.14
90456.14
90456.14
90456.14
90456.14
90513.55
90513.55
90513.55
90513.55
90513.55
91053.64
91053.64
91053.64
91053.64
91053.64
90684.81
90684.81
90684.81
90684.81
90684.81
90684.86
90684.86
90684.86
90684.86
90684.86
91052.44
91052.44
91052.44
91052.44
91052.44
90512.57
90512.57
90512.57
90512.57
90512.57
90457.38
90457.38
90457.38
90457.38
90457.38
90988.79
90988.79
90988.79
90988.79
90988.79
90647.36
90647.36
90647.36
90647.36
90647.36
90727.56
90727.56
90727.56
90727.56
90727.56
91076.52
91076.52
91076.52
91076.52
91076.52
90572.87
90572.87
90572.87
90572.87
90572.87
90366.01
90366.01
90366.01
90366.01
90366.01
90908.19
90908.19
90908.19
90908.19
90908.19
90609.32
90609.32
90609.32
90609.32
90609.32
90853.21
90853.21
90853.21
90853.21
90853.21
91119.76
91119.76
91119.76
91119.76
91119.76
90726.05
90726.05
90726.05
90726.05
90726.05
90204.98
90204.98
90204.98
90204.98
90204.98
90535.08
90535.08
90535.08
90535.08
90535.08
90690.88
90690.88
90690.88
90690.88
90690.88
91222.42
91222.42
91222.42
91222.42
91222.42
91302.3
91302.3
91302.3
91302.3
91302.3
90910.02
90910.02
90910.02
90910.02
90910.02
90256.71
90256.71
90256.71
90256.71
90256.71
90098.92
90098.92
90098.92
90098.92
90098.92
90708.17
90708.17
90708.17
90708.17
90708.17
91101.43
91101.43
91101.43
91101.43
91101.43
91059.91
91059.91
91059.91
91059.91
91059.91
90584.41
90584.41
90584.41
90584.41
90584.41
90383.28
90383.28
90383.28
90383.28
90383.28
90052.42
90052.42
90052.42
90052.42
90052.42
90520.3
90520.3
90520.3
90520.3
90520.3
90934.33
90934.33
90934.33
90934.33
90934.33
90694.36
90694.36
90694.36
90694.36
90694.36
90471.81
90471.81
90471.81
90471.81
90471.81
90758.55
90758.55
90758.55
90758.55
90758.55
90218.94
90218.94
90218.94
90218.94
90218.94
90408.9
90408.9
90408.9
90408.9
90408.9
90918.13
90918.13
90918.13
90918.13
90918.13
90596.01
90596.01
90596.01
90596.01
90596.01
90530.39
90530.39
90530.39
90530.39
90530.39
90864.88
90864.88
90864.88
90864.88
90864.88
90325.38
90325.38
90325.38
90325.38
90325.38
90377.12
90377.12
90377.12
90377.12
90377.12
90915.12
90915.12
90915.12
90915.12
90915.12
90580.19
90580.19
90580.19
90580.19
90580.19
90580.45
90580.45
90580.45
90580.45
90580.45
90914.52
90914.52
90914.52
90914.52
90914.52
90377.15
90377.15
90377.15
90377.15
90377.15
90327.73
90327.73
90327.73
90327.73
90327.73
90884.19
90884.19
90884.19
90884.19
90884.19
90548.38
90548.38
90548.38
90548.38
90548.38
90596.36
90596.36
90596.36
90596.36
90596.36
90915
90915
90915
90915
90915
90407.52
90407.52
90407.52
90407.52
90407.52
90223.56
90223.56
90223.56
90223.56
90223.56
90764.47
90764.47
90764.47
90764.47
90764.47
90474.32
90474.32
90474.32
90474.32
90474.32
90696.64
90696.64
90696.64
90696.64
90696.64
90935.75
90935.75
90935.75
90935.75
90935.75
90521.54
90521.54
90521.54
90521.54
90521.54
90054.11
90054.11
90054.11
90054.11
90054.11
90385.98
90385.98
90385.98
90385.98
90385.98
90584.82
90584.82
90584.82
90584.82
90584.82
91059.82
91059.82
91059.82
91059.82
91059.82
91098.61
91098.61
91098.61
91098.61
91098.61
90705.44
90705.44
90705.44
90705.44
90705.44
90100.85
90100.85
90100.85
90100.85
90100.85
89946.78
89946.78
89946.78
89946.78
89946.78
90499.47
90499.47
90499.47
90499.47
90499.47
90915.93
90915.93
90915.93
90915.93
90915.93
90921.45
90921.45
90921.45
90921.45
90921.45
90521.63
90521.63
90521.63
90521.63
90521.63
90292.32
90292.32
90292.32
90292.32
90292.32
89946.85
89946.85
89946.85
89946.85
89946.85
90369.28
90369.28
90369.28
90369.28
90369.28
90816.98
90816.98
90816.98
90816.98
90816.98
90595.01
90595.01
90595.01
90595.01
90595.01
90388.14
90388.14
90388.14
90388.14
90388.14
90653.97
90653.97
90653.97
90653.97
90653.97
90103.24
90103.24
90103.24
90103.24
90103.24
90273.82
90273.82
90273.82
90273.82
90273.82
90772.61
90772.61
90772.61
90772.61
90772.61
90478.12
90478.12
90478.12
90478.12
90478.12
90425.2
90425.2
90425.2
90425.2
90425.2
90747.61
90747.61
90747.61
90747.61
90747.61
90170.9
90170.9
90170.9
90170.9
90170.9
90215.18
90215.18
90215.18
90215.18
90215.18
90746.17
90746.17
90746.17
90746.17
90746.17
90452.04
90452.04
90452.04
90452.04
90452.04
90452.31
90452.31
90452.31
90452.31
90452.31
90743.83
90743.83
90743.83
90743.83
90743.83
90213.54
90213.54
90213.54
90213.54
90213.54
90174.28
90174.28
90174.28
90174.28
90174.28
90751.23
90751.23
90751.23
90751.23
90751.23
90426.86
90426.86
90426.86
90426.86
90426.86
90478.76
90478.76
90478.76
90478.76
90478.76
90772.03
90772.03
90772.03
90772.03
90772.03
90258.39
90258.39
90258.39
90258.39
90258.39
90090.73
90090.73
90090.73
90090.73
90090.73
90642.53
90642.53
90642.53
90642.53
90642.53
90375.29
90375.29
90375.29
90375.29
90375.29
90603.76
90603.76
90603.76
90603.76
90603.76
90827.03
90827.03
90827.03
90827.03
90827.03
90379.31
90379.31
90379.31
90379.31
90379.31
89958.15
89958.15
89958.15
89958.15
89958.15
90305.64
90305.64
90305.64
90305.64
90305.64
90537.29
90537.29