/*--------------------------------*- C++ -*----------------------------------*\
| =========                 |                                                 |
| \\      /  F ield         | OpenFOAM: The Open Source CFD Toolbox           |
|  \\    /   O peration     | Version:  4.0                                   |
|   \\  /    A nd           | Web:      www.OpenFOAM.org                      |
|    \\/     M anipulation  |                                                 |
\*---------------------------------------------------------------------------*/
FoamFile
{
    version     2.0;
    format      ascii;
    class       volScalarField;
    location    "120/electrolyte";
    object      etaActC;
}
// * * * * * * * * * * * * * * * * * * * * * * * * * * * * * * * * * * * * * //

dimensions      [1 2 -3 0 0 -1 0];

internalField   nonuniform List<scalar> 
4840
(
0.6171983
0.6171983
0.6171983
0.6171983
0.6171983
0.6185181
0.6185181
0.6185181
0.6185181
0.6185181
0.6200487
0.6200487
0.6200487
0.6200487
0.6200487
0.6202458
0.6202458
0.6202458
0.6202458
0.6202458
0.6202108
0.6202108
0.6202108
0.6202108
0.6202108
0.6202426
0.6202426
0.6202426
0.6202426
0.6202426
0.6188957
0.6188957
0.6188957
0.6188957
0.6188957
0.6189645
0.6189645
0.6189645
0.6189645
0.6189645
0.6202595
0.6202595
0.6202595
0.6202595
0.6202595
0.6204153
0.6204153
0.6204153
0.6204153
0.6204153
0.6206518
0.6206518
0.6206518
0.6206518
0.6206518
0.6204901
0.6204901
0.6204901
0.6204901
0.6204901
0.6191783
0.6191783
0.6191783
0.6191783
0.6191783
0.6191912
0.6191912
0.6191912
0.6191912
0.6191912
0.6204963
0.6204963
0.6204963
0.6204963
0.6204963
0.6207158
0.6207158
0.6207158
0.6207158
0.6207158
0.620714
0.620714
0.620714
0.620714
0.620714
0.6205532
0.6205532
0.6205532
0.6205532
0.6205532
0.6192452
0.6192452
0.6192452
0.6192452
0.6192452
0.6192518
0.6192518
0.6192518
0.6192518
0.6192518
0.6205597
0.6205597
0.6205597
0.6205597
0.6205597
0.6207172
0.6207172
0.6207172
0.6207172
0.6207172
0.6207162
0.6207162
0.6207162
0.6207162
0.6207162
0.6205558
0.6205558
0.6205558
0.6205558
0.6205558
0.6192503
0.6192503
0.6192503
0.6192503
0.6192503
0.6192015
0.6192015
0.6192015
0.6192015
0.6192015
0.6205101
0.6205101
0.6205101
0.6205101
0.6205101
0.620668
0.620668
0.620668
0.620668
0.620668
0.6206679
0.6206679
0.6206679
0.6206679
0.6206679
0.6205073
0.6205073
0.6205073
0.6205073
0.6205073
0.6190295
0.6190295
0.6190295
0.6190295
0.6190295
0.6190217
0.6190217
0.6190217
0.6190217
0.6190217
0.6203343
0.6203343
0.6203343
0.6203343
0.6203343
0.6204932
0.6204932
0.6204932
0.6204932
0.6204932
0.6204965
0.6204965
0.6204965
0.6204965
0.6204965
0.6203436
0.6203436
0.6203436
0.6203436
0.6203436
0.619049
0.619049
0.619049
0.619049
0.619049
0.6189849
0.6189849
0.6189849
0.6189849
0.6189849
0.620332
0.620332
0.620332
0.620332
0.620332
0.620501
0.620501
0.620501
0.620501
0.620501
0.6207001
0.6207001
0.6207001
0.6207001
0.6207001
0.6204877
0.6204877
0.6204877
0.6204877
0.6204877
0.6189393
0.6189393
0.6189393
0.6189393
0.6189393
0.6176049
0.6176049
0.6176049
0.6176049
0.6176049
0.6179435
0.6179435
0.6179435
0.6179435
0.6179435
0.6189881
0.6189881
0.6189881
0.6189881
0.6189881
0.6201561
0.6201561
0.6201561
0.6201561
0.6201561
0.6203407
0.6203407
0.6203407
0.6203407
0.6203407
0.6203058
0.6203058
0.6203058
0.6203058
0.6203058
0.6200997
0.6200997
0.6200997
0.6200997
0.6200997
0.6189632
0.6189632
0.6189632
0.6189632
0.6189632
0.6190424
0.6190424
0.6190424
0.6190424
0.6190424
0.6201292
0.6201292
0.6201292
0.6201292
0.6201292
0.6203078
0.6203078
0.6203078
0.6203078
0.6203078
0.6203027
0.6203027
0.6203027
0.6203027
0.6203027
0.6200635
0.6200635
0.6200635
0.6200635
0.6200635
0.6189545
0.6189545
0.6189545
0.6189545
0.6189545
0.618974
0.618974
0.618974
0.618974
0.618974
0.6200746
0.6200746
0.6200746
0.6200746
0.6200746
0.620258
0.620258
0.620258
0.620258
0.620258
0.6200836
0.6200836
0.6200836
0.6200836
0.6200836
0.6198943
0.6198943
0.6198943
0.6198943
0.6198943
0.61879
0.61879
0.61879
0.61879
0.61879
0.6187996
0.6187996
0.6187996
0.6187996
0.6187996
0.6199024
0.6199024
0.6199024
0.6199024
0.6199024
0.6200872
0.6200872
0.6200872
0.6200872
0.6200872
0.6200851
0.6200851
0.6200851
0.6200851
0.6200851
0.619897
0.619897
0.619897
0.619897
0.619897
0.6187963
0.6187963
0.6187963
0.6187963
0.6187963
0.6187951
0.6187951
0.6187951
0.6187951
0.6187951
0.620072
0.620072
0.620072
0.620072
0.620072
0.6202574
0.6202574
0.6202574
0.6202574
0.6202574
0.6202563
0.6202563
0.6202563
0.6202563
0.6202563
0.6200687
0.6200687
0.6200687
0.6200687
0.6200687
0.6189694
0.6189694
0.6189694
0.6189694
0.6189694
0.619006
0.619006
0.619006
0.619006
0.619006
0.6201175
0.6201175
0.6201175
0.6201175
0.6201175
0.6203048
0.6203048
0.6203048
0.6203048
0.6203048
0.6203072
0.6203072
0.6203072
0.6203072
0.6203072
0.6201246
0.6201246
0.6201246
0.6201246
0.6201246
0.6190398
0.6190398
0.6190398
0.6190398
0.6190398
0.6189686
0.6189686
0.6189686
0.6189686
0.6189686
0.6201071
0.6201071
0.6201071
0.6201071
0.6201071
0.6203082
0.6203082
0.6203082
0.6203082
0.6203082
0.6203368
0.6203368
0.6203368
0.6203368
0.6203368
0.6200947
0.6200947
0.6200947
0.6200947
0.6200947
0.6189243
0.6189243
0.6189243
0.6189243
0.6189243
0.6179402
0.6179402
0.6179402
0.6179402
0.6179402
0.6177221
0.6177221
0.6177221
0.6177221
0.6177221
0.6185906
0.6185906
0.6185906
0.6185906
0.6185906
0.619583
0.619583
0.619583
0.619583
0.619583
0.6198141
0.6198141
0.6198141
0.6198141
0.6198141
0.6197745
0.6197745
0.6197745
0.6197745
0.6197745
0.6195143
0.6195143
0.6195143
0.6195143
0.6195143
0.6184482
0.6184482
0.6184482
0.6184482
0.6184482
0.6185178
0.6185178
0.6185178
0.6185178
0.6185178
0.6195518
0.6195518
0.6195518
0.6195518
0.6195518
0.6197788
0.6197788
0.6197788
0.6197788
0.6197788
0.619771
0.619771
0.619771
0.619771
0.619771
0.6195264
0.6195264
0.6195264
0.6195264
0.6195264
0.6186455
0.6186455
0.6186455
0.6186455
0.6186455
0.6186712
0.6186712
0.6186712
0.6186712
0.6186712
0.619714
0.619714
0.619714
0.619714
0.619714
0.6199464
0.6199464
0.6199464
0.6199464
0.6199464
0.6199407
0.6199407
0.6199407
0.6199407
0.6199407
0.6197465
0.6197465
0.6197465
0.6197465
0.6197465
0.6186994
0.6186994
0.6186994
0.6186994
0.6186994
0.6187117
0.6187117
0.6187117
0.6187117
0.6187117
0.6197584
0.6197584
0.6197584
0.6197584
0.6197584
0.6199926
0.6199926
0.6199926
0.6199926
0.6199926
0.6199893
0.6199893
0.6199893
0.6199893
0.6199893
0.6197493
0.6197493
0.6197493
0.6197493
0.6197493
0.618706
0.618706
0.618706
0.618706
0.618706
0.6187051
0.6187051
0.6187051
0.6187051
0.6187051
0.6197562
0.6197562
0.6197562
0.6197562
0.6197562
0.6199448
0.6199448
0.6199448
0.6199448
0.6199448
0.619943
0.619943
0.619943
0.619943
0.619943
0.6197048
0.6197048
0.6197048
0.6197048
0.6197048
0.618665
0.618665
0.618665
0.618665
0.618665
0.6186506
0.6186506
0.6186506
0.6186506
0.6186506
0.6195351
0.6195351
0.6195351
0.6195351
0.6195351
0.6197739
0.6197739
0.6197739
0.6197739
0.6197739
0.6197758
0.6197758
0.6197758
0.6197758
0.6197758
0.6195431
0.6195431
0.6195431
0.6195431
0.6195431
0.6185123
0.6185123
0.6185123
0.6185123
0.6185123
0.6184534
0.6184534
0.6184534
0.6184534
0.6184534
0.619522
0.619522
0.619522
0.619522
0.619522
0.619775
0.619775
0.619775
0.619775
0.619775
0.6198044
0.6198044
0.6198044
0.6198044
0.6198044
0.6195614
0.6195614
0.6195614
0.6195614
0.6195614
0.6185685
0.6185685
0.6185685
0.6185685
0.6185685
0.6177179
0.6177179
0.6177179
0.6177179
0.6177179
0.6174241
0.6174241
0.6174241
0.6174241
0.6174241
0.6181602
0.6181602
0.6181602
0.6181602
0.6181602
0.6193987
0.6193987
0.6193987
0.6193987
0.6193987
0.6197548
0.6197548
0.6197548
0.6197548
0.6197548
0.6197187
0.6197187
0.6197187
0.6197187
0.6197187
0.6193854
0.6193854
0.6193854
0.6193854
0.6193854
0.6183674
0.6183674
0.6183674
0.6183674
0.6183674
0.6184155
0.6184155
0.6184155
0.6184155
0.6184155
0.619439
0.619439
0.619439
0.619439
0.619439
0.6197268
0.6197268
0.6197268
0.6197268
0.6197268
0.619715
0.619715
0.619715
0.619715
0.619715
0.619399
0.619399
0.619399
0.619399
0.619399
0.6183871
0.6183871
0.6183871
0.6183871
0.6183871
0.6183604
0.6183604
0.6183604
0.6183604
0.6183604
0.6193813
0.6193813
0.6193813
0.6193813
0.6193813
0.6196764
0.6196764
0.6196764
0.6196764
0.6196764
0.6196686
0.6196686
0.6196686
0.6196686
0.6196686
0.6193574
0.6193574
0.6193574
0.6193574
0.6193574
0.6181749
0.6181749
0.6181749
0.6181749
0.6181749
0.6181864
0.6181864
0.6181864
0.6181864
0.6181864
0.6192054
0.6192054
0.6192054
0.6192054
0.6192054
0.6195042
0.6195042
0.6195042
0.6195042
0.6195042
0.6194998
0.6194998
0.6194998
0.6194998
0.6194998
0.619193
0.619193
0.619193
0.619193
0.619193
0.6181784
0.6181784
0.6181784
0.6181784
0.6181784
0.6181807
0.6181807
0.6181807
0.6181807
0.6181807
0.6191978
0.6191978
0.6191978
0.6191978
0.6191978
0.6195017
0.6195017
0.6195017
0.6195017
0.6195017
0.619671
0.619671
0.619671
0.619671
0.619671
0.619369
0.619369
0.619369
0.619369
0.619369
0.6183521
0.6183521
0.6183521
0.6183521
0.6183521
0.6183451
0.6183451
0.6183451
0.6183451
0.6183451
0.6193612
0.6193612
0.6193612
0.6193612
0.6193612
0.6197181
0.6197181
0.6197181
0.6197181
0.6197181
0.6197216
0.6197216
0.6197216
0.6197216
0.6197216
0.6194268
0.6194268
0.6194268
0.6194268
0.6194268
0.6184074
0.6184074
0.6184074
0.6184074
0.6184074
0.6183723
0.6183723
0.6183723
0.6183723
0.6183723
0.6193936
0.6193936
0.6193936
0.6193936
0.6193936
0.6197177
0.6197177
0.6197177
0.6197177
0.6197177
0.6197403
0.6197403
0.6197403
0.6197403
0.6197403
0.6194178
0.6194178
0.6194178
0.6194178
0.6194178
0.6181797
0.6181797
0.6181797
0.6181797
0.6181797
0.6174178
0.6174178
0.6174178
0.6174178
0.6174178
0.6171545
0.6171545
0.6171545
0.6171545
0.6171545
0.6178089
0.6178089
0.6178089
0.6178089
0.6178089
0.619102
0.619102
0.619102
0.619102
0.619102
0.619482
0.619482
0.619482
0.619482
0.619482
0.6192838
0.6192838
0.6192838
0.6192838
0.6192838
0.6189112
0.6189112
0.6189112
0.6189112
0.6189112
0.6178923
0.6178923
0.6178923
0.6178923
0.6178923
0.617927
0.617927
0.617927
0.617927
0.617927
0.6189636
0.6189636
0.6189636
0.6189636
0.6189636
0.6192873
0.6192873
0.6192873
0.6192873
0.6192873
0.619273
0.619273
0.619273
0.619273
0.619273
0.6189138
0.6189138
0.6189138
0.6189138
0.6189138
0.6178999
0.6178999
0.6178999
0.6178999
0.6178999
0.6179177
0.6179177
0.6179177
0.6179177
0.6179177
0.6191228
0.6191228
0.6191228
0.6191228
0.6191228
0.6194572
0.6194572
0.6194572
0.6194572
0.6194572
0.6194473
0.6194473
0.6194473
0.6194473
0.6194473
0.6190929
0.6190929
0.6190929
0.6190929
0.6190929
0.618074
0.618074
0.618074
0.618074
0.618074
0.6181326
0.6181326
0.6181326
0.6181326
0.6181326
0.6191636
0.6191636
0.6191636
0.6191636
0.6191636
0.6195024
0.6195024
0.6195024
0.6195024
0.6195024
0.6194973
0.6194973
0.6194973
0.6194973
0.6194973
0.6191506
0.6191506
0.6191506
0.6191506
0.6191506
0.6181237
0.6181237
0.6181237
0.6181237
0.6181237
0.6181278
0.6181278
0.6181278
0.6181278
0.6181278
0.6191518
0.6191518
0.6191518
0.6191518
0.6191518
0.6194985
0.6194985
0.6194985
0.6194985
0.6194985
0.6194987
0.6194987
0.6194987
0.6194987
0.6194987
0.6190957
0.6190957
0.6190957
0.6190957
0.6190957
0.6180667
0.6180667
0.6180667
0.6180667
0.6180667
0.6180642
0.6180642
0.6180642
0.6180642
0.6180642
0.619084
0.619084
0.619084
0.619084
0.619084
0.6194359
0.6194359
0.6194359
0.6194359
0.6194359
0.6192031
0.6192031
0.6192031
0.6192031
0.6192031
0.6188659
0.6188659
0.6188659
0.6188659
0.6188659
0.6178344
0.6178344
0.6178344
0.6178344
0.6178344
0.6178144
0.6178144
0.6178144
0.6178144
0.6178144
0.6188365
0.6188365
0.6188365
0.6188365
0.6188365
0.6189942
0.6189942
0.6189942
0.6189942
0.6189942
0.6190067
0.6190067
0.6190067
0.6190067
0.6190067
0.6186121
0.6186121
0.6186121
0.6186121
0.6186121
0.6173227
0.6173227
0.6173227
0.6173227
0.6173227
0.6166928
0.6166928
0.6166928
0.6166928
0.6166928
0.6164567
0.6164567
0.6164567
0.6164567
0.6164567
0.6170484
0.6170484
0.6170484
0.6170484
0.6170484
0.618355
0.618355
0.618355
0.618355
0.618355
0.6188244
0.6188244
0.6188244
0.6188244
0.6188244
0.6188095
0.6188095
0.6188095
0.6188095
0.6188095
0.6185746
0.6185746
0.6185746
0.6185746
0.6185746
0.6175581
0.6175581
0.6175581
0.6175581
0.6175581
0.617584
0.617584
0.617584
0.617584
0.617584
0.6186179
0.6186179
0.6186179
0.6186179
0.6186179
0.6189958
0.6189958
0.6189958
0.6189958
0.6189958
0.6191854
0.6191854
0.6191854
0.6191854
0.6191854
0.6187791
0.6187791
0.6187791
0.6187791
0.6187791
0.6177707
0.6177707
0.6177707
0.6177707
0.6177707
0.6177875
0.6177875
0.6177875
0.6177875
0.6177875
0.6188254
0.6188254
0.6188254
0.6188254
0.6188254
0.6192598
0.6192598
0.6192598
0.6192598
0.6192598
0.619248
0.619248
0.619248
0.619248
0.619248
0.6188492
0.6188492
0.6188492
0.6188492
0.6188492
0.6178317
0.6178317
0.6178317
0.6178317
0.6178317
0.617843
0.617843
0.617843
0.617843
0.617843
0.6188739
0.6188739
0.6188739
0.6188739
0.6188739
0.6192579
0.6192579
0.6192579
0.6192579
0.6192579
0.6192523
0.6192523
0.6192523
0.6192523
0.6192523
0.6188599
0.6188599
0.6188599
0.6188599
0.6188599
0.617836
0.617836
0.617836
0.617836
0.617836
0.617796
0.617796
0.617796
0.617796
0.617796
0.6188189
0.6188189
0.6188189
0.6188189
0.6188189
0.6192093
0.6192093
0.6192093
0.6192093
0.6192093
0.61921
0.61921
0.61921
0.61921
0.61921
0.6188246
0.6188246
0.6188246
0.6188246
0.6188246
0.6176426
0.6176426
0.6176426
0.6176426
0.6176426
0.6176422
0.6176422
0.6176422
0.6176422
0.6176422
0.618656
0.618656
0.618656
0.618656
0.618656
0.6190539
0.6190539
0.6190539
0.6190539
0.6190539
0.6190578
0.6190578
0.6190578
0.6190578
0.6190578
0.6186764
0.6186764
0.6186764
0.6186764
0.6186764
0.6176475
0.6176475
0.6176475
0.6176475
0.6176475
0.6176372
0.6176372
0.6176372
0.6176372
0.6176372
0.6186579
0.6186579
0.6186579
0.6186579
0.6186579
0.6190576
0.6190576
0.6190576
0.6190576
0.6190576
0.6192035
0.6192035
0.6192035
0.6192035
0.6192035
0.6187163
0.6187163
0.6187163
0.6187163
0.6187163
0.6174098
0.6174098
0.6174098
0.6174098
0.6174098
0.6168424
0.6168424
0.6168424
0.6168424
0.6168424
0.6166292
0.6166292
0.6166292
0.6166292
0.6166292
0.6172351
0.6172351
0.6172351
0.6172351
0.6172351
0.6185734
0.6185734
0.6185734
0.6185734
0.6185734
0.6191044
0.6191044
0.6191044
0.6191044
0.6191044
0.6191006
0.6191006
0.6191006
0.6191006
0.6191006
0.6186603
0.6186603
0.6186603
0.6186603
0.6186603
0.617632
0.617632
0.617632
0.617632
0.617632
0.6176534
0.6176534
0.6176534
0.6176534
0.6176534
0.618709
0.618709
0.618709
0.618709
0.618709
0.6191139
0.6191139
0.6191139
0.6191139
0.6191139
0.6190967
0.6190967
0.6190967
0.6190967
0.6190967
0.6186164
0.6186164
0.6186164
0.6186164
0.6186164
0.617592
0.617592
0.617592
0.617592
0.617592
0.6176085
0.6176085
0.6176085
0.6176085
0.6176085
0.6186655
0.6186655
0.6186655
0.6186655
0.6186655
0.6190697
0.6190697
0.6190697
0.6190697
0.6190697
0.6189072
0.6189072
0.6189072
0.6189072
0.6189072
0.6184815
0.6184815
0.6184815
0.6184815
0.6184815
0.6174467
0.6174467
0.6174467
0.6174467
0.6174467
0.6174575
0.6174575
0.6174575
0.6174575
0.6174575
0.6185021
0.6185021
0.6185021
0.6185021
0.6185021
0.6189162
0.6189162
0.6189162
0.6189162
0.6189162
0.6189102
0.6189102
0.6189102
0.6189102
0.6189102
0.6184884
0.6184884
0.6184884
0.6184884
0.6184884
0.6174499
0.6174499
0.6174499
0.6174499
0.6174499
0.6174565
0.6174565
0.6174565
0.6174565
0.6174565
0.6186465
0.6186465
0.6186465
0.6186465
0.6186465
0.6190637
0.6190637
0.6190637
0.6190637
0.6190637
0.6190644
0.6190644
0.6190644
0.6190644
0.6190644
0.6186515
0.6186515
0.6186515
0.6186515
0.6186515
0.6176004
0.6176004
0.6176004
0.6176004
0.6176004
0.6176466
0.6176466
0.6176466
0.6176466
0.6176466
0.6186773
0.6186773
0.6186773
0.6186773
0.6186773
0.6191032
0.6191032
0.6191032
0.6191032
0.6191032
0.6191087
0.6191087
0.6191087
0.6191087
0.6191087
0.6186947
0.6186947
0.6186947
0.6186947
0.6186947
0.6176444
0.6176444
0.6176444
0.6176444
0.6176444
0.6176393
0.6176393
0.6176393
0.6176393
0.6176393
0.6186717
0.6186717
0.6186717
0.6186717
0.6186717
0.6190993
0.6190993
0.6190993
0.6190993
0.6190993
0.6190843
0.6190843
0.6190843
0.6190843
0.6190843
0.6184899
0.6184899
0.6184899
0.6184899
0.6184899
0.6171539
0.6171539
0.6171539
0.6171539
0.6171539
0.6166192
0.6166192
0.6166192
0.6166192
0.6166192
0.616428
0.616428
0.616428
0.616428
0.616428
0.6169749
0.6169749
0.6169749
0.6169749
0.6169749
0.6181947
0.6181947
0.6181947
0.6181947
0.6181947
0.6187708
0.6187708
0.6187708
0.6187708
0.6187708
0.6187766
0.6187766
0.6187766
0.6187766
0.6187766
0.6183154
0.6183154
0.6183154
0.6183154
0.6183154
0.6172735
0.6172735
0.6172735
0.6172735
0.6172735
0.6172934
0.6172934
0.6172934
0.6172934
0.6172934
0.6183731
0.6183731
0.6183731
0.6183731
0.6183731
0.6187951
0.6187951
0.6187951
0.6187951
0.6187951
0.6187764
0.6187764
0.6187764
0.6187764
0.6187764
0.6183225
0.6183225
0.6183225
0.6183225
0.6183225
0.6174261
0.6174261
0.6174261
0.6174261
0.6174261
0.6174423
0.6174423
0.6174423
0.6174423
0.6174423
0.6185193
0.6185193
0.6185193
0.6185193
0.6185193
0.6189447
0.6189447
0.6189447
0.6189447
0.6189447
0.6189315
0.6189315
0.6189315
0.6189315
0.6189315
0.618532
0.618532
0.618532
0.618532
0.618532
0.6174746
0.6174746
0.6174746
0.6174746
0.6174746
0.6174848
0.6174848
0.6174848
0.6174848
0.6174848
0.6185487
0.6185487
0.6185487
0.6185487
0.6185487
0.6189839
0.6189839
0.6189839
0.6189839
0.6189839
0.6189776
0.6189776
0.6189776
0.6189776
0.6189776
0.6185333
0.6185333
0.6185333
0.6185333
0.6185333
0.6174758
0.6174758
0.6174758
0.6174758
0.6174758
0.6174836
0.6174836
0.6174836
0.6174836
0.6174836
0.6185478
0.6185478
0.6185478
0.6185478
0.6185478
0.6189382
0.6189382
0.6189382
0.6189382
0.6189382
0.6189385
0.6189385
0.6189385
0.6189385
0.6189385
0.6185039
0.6185039
0.6185039
0.6185039
0.6185039
0.6174332
0.6174332
0.6174332
0.6174332
0.6174332
0.6174351
0.6174351
0.6174351
0.6174351
0.6174351
0.6183378
0.6183378
0.6183378
0.6183378
0.6183378
0.6187825
0.6187825
0.6187825
0.6187825
0.6187825
0.6187887
0.6187887
0.6187887
0.6187887
0.6187887
0.6183573
0.6183573
0.6183573
0.6183573
0.6183573
0.6172833
0.6172833
0.6172833
0.6172833
0.6172833
0.6172802
0.6172802
0.6172802
0.6172802
0.6172802
0.618326
0.618326
0.618326
0.618326
0.618326
0.6187738
0.6187738
0.6187738
0.6187738
0.6187738
0.618748
0.618748
0.618748
0.618748
0.618748
0.6181531
0.6181531
0.6181531
0.6181531
0.6181531
0.6169359
0.6169359
0.6169359
0.6169359
0.6169359
0.6164161
0.6164161
0.6164161
0.6164161
0.6164161
0.6162467
0.6162467
0.6162467
0.6162467
0.6162467
0.6167926
0.6167926
0.6167926
0.6167926
0.6167926
0.6181955
0.6181955
0.6181955
0.6181955
0.6181955
0.6188478
0.6188478
0.6188478
0.6188478
0.6188478
0.618861
0.618861
0.618861
0.618861
0.618861
0.6183856
0.6183856
0.6183856
0.6183856
0.6183856
0.6173261
0.6173261
0.6173261
0.6173261
0.6173261
0.6173451
0.6173451
0.6173451
0.6173451
0.6173451
0.6184469
0.6184469
0.6184469
0.6184469
0.6184469
0.6188832
0.6188832
0.6188832
0.6188832
0.6188832
0.6188634
0.6188634
0.6188634
0.6188634
0.6188634
0.6183925
0.6183925
0.6183925
0.6183925
0.6183925
0.6173294
0.6173294
0.6173294
0.6173294
0.6173294
0.6173003
0.6173003
0.6173003
0.6173003
0.6173003
0.6183993
0.6183993
0.6183993
0.6183993
0.6183993
0.6188385
0.6188385
0.6188385
0.6188385
0.6188385
0.6188254
0.6188254
0.6188254
0.6188254
0.6188254
0.6183665
0.6183665
0.6183665
0.6183665
0.6183665
0.617139
0.617139
0.617139
0.617139
0.617139
0.6171486
0.6171486
0.6171486
0.6171486
0.6171486
0.618231
0.618231
0.618231
0.618231
0.618231
0.6186814
0.6186814
0.6186814
0.6186814
0.6186814
0.618675
0.618675
0.618675
0.618675
0.618675
0.6182141
0.6182141
0.6182141
0.6182141
0.6182141
0.6171384
0.6171384
0.6171384
0.6171384
0.6171384
0.6171472
0.6171472
0.6171472
0.6171472
0.6171472
0.6182324
0.6182324
0.6182324
0.6182324
0.6182324
0.6186817
0.6186817
0.6186817
0.6186817
0.6186817
0.6188312
0.6188312
0.6188312
0.6188312
0.6188312
0.6183827
0.6183827
0.6183827
0.6183827
0.6183827
0.6172903
0.6172903
0.6172903
0.6172903
0.6172903
0.6172925
0.6172925
0.6172925
0.6172925
0.6172925
0.6183618
0.6183618
0.6183618
0.6183618
0.6183618
0.6188689
0.6188689
0.6188689
0.6188689
0.6188689
0.6188758
0.6188758
0.6188758
0.6188758
0.6188758
0.6184299
0.6184299
0.6184299
0.6184299
0.6184299
0.6173338
0.6173338
0.6173338
0.6173338
0.6173338
0.6173318
0.6173318
0.6173318
0.6173318
0.6173318
0.6183952
0.6183952
0.6183952
0.6183952
0.6183952
0.6188568
0.6188568
0.6188568
0.6188568
0.6188568
0.6188227
0.6188227
0.6188227
0.6188227
0.6188227
0.6181966
0.6181966
0.6181966
0.6181966
0.6181966
0.6167956
0.6167956
0.6167956
0.6167956
0.6167956
0.6162325
0.6162325
0.6162325
0.6162325
0.6162325
0.6160844
0.6160844
0.6160844
0.6160844
0.6160844
0.6166342
0.6166342
0.6166342
0.6166342
0.6166342
0.6180677
0.6180677
0.6180677
0.6180677
0.6180677
0.6186994
0.6186994
0.6186994
0.6186994
0.6186994
0.6185708
0.6185708
0.6185708
0.6185708
0.6185708
0.6180863
0.6180863
0.6180863
0.6180863
0.6180863
0.6170119
0.6170119
0.6170119
0.6170119
0.6170119
0.6170302
0.6170302
0.6170302
0.6170302
0.6170302
0.6181448
0.6181448
0.6181448
0.6181448
0.6181448
0.6185892
0.6185892
0.6185892
0.6185892
0.6185892
0.6185695
0.6185695
0.6185695
0.6185695
0.6185695
0.6180861
0.6180861
0.6180861
0.6180861
0.6180861
0.6170094
0.6170094
0.6170094
0.6170094
0.6170094
0.6170256
0.6170256
0.6170256
0.6170256
0.6170256
0.6182892
0.6182892
0.6182892
0.6182892
0.6182892
0.6187414
0.6187414
0.6187414
0.6187414
0.6187414
0.6187285
0.6187285
0.6187285
0.6187285
0.6187285
0.6182551
0.6182551
0.6182551
0.6182551
0.6182551
0.6171624
0.6171624
0.6171624
0.6171624
0.6171624
0.6172175
0.6172175
0.6172175
0.6172175
0.6172175
0.6183177
0.6183177
0.6183177
0.6183177
0.6183177
0.6187794
0.6187794
0.6187794
0.6187794
0.6187794
0.6187728
0.6187728
0.6187728
0.6187728
0.6187728
0.6183017
0.6183017
0.6183017
0.6183017
0.6183017
0.6172069
0.6172069
0.6172069
0.6172069
0.6172069
0.6172159
0.6172159
0.6172159
0.6172159
0.6172159
0.6183153
0.6183153
0.6183153
0.6183153
0.6183153
0.6187792
0.6187792
0.6187792
0.6187792
0.6187792
0.6187792
0.6187792
0.6187792
0.6187792
0.6187792
0.61826
0.61826
0.61826
0.61826
0.61826
0.617153
0.617153
0.617153
0.617153
0.617153
0.6171554
0.6171554
0.6171554
0.6171554
0.6171554
0.6182394
0.6182394
0.6182394
0.6182394
0.6182394
0.6187135
0.6187135
0.6187135
0.6187135
0.6187135
0.6185154
0.6185154
0.6185154
0.6185154
0.6185154
0.6180562
0.6180562
0.6180562
0.6180562
0.6180562
0.6169474
0.6169474
0.6169474
0.6169474
0.6169474
0.6169463
0.6169463
0.6169463
0.6169463
0.6169463
0.6180242
0.6180242
0.6180242
0.6180242
0.6180242
0.6183181
0.6183181
0.6183181
0.6183181
0.6183181
0.6182766
0.6182766
0.6182766
0.6182766
0.6182766
0.6176265
0.6176265
0.6176265
0.6176265
0.6176265
0.616197
0.616197
0.616197
0.616197
0.616197
0.615676
0.615676
0.615676
0.615676
0.615676
0.6154793
0.6154793
0.6154793
0.6154793
0.6154793
0.616035
0.616035
0.616035
0.616035
0.616035
0.6174929
0.6174929
0.6174929
0.6174929
0.6174929
0.6181431
0.6181431
0.6181431
0.6181431
0.6181431
0.6181691
0.6181691
0.6181691
0.6181691
0.6181691
0.6178457
0.6178457
0.6178457
0.6178457
0.6178457
0.616759
0.616759
0.616759
0.616759
0.616759
0.6167764
0.6167764
0.6167764
0.6167764
0.6167764
0.617898
0.617898
0.617898
0.617898
0.617898
0.61836
0.61836
0.61836
0.61836
0.61836
0.618563
0.618563
0.618563
0.618563
0.618563
0.6180712
0.6180712
0.6180712
0.6180712
0.6180712
0.6169817
0.6169817
0.6169817
0.6169817
0.6169817
0.6169972
0.6169972
0.6169972
0.6169972
0.6169972
0.6181172
0.6181172
0.6181172
0.6181172
0.6181172
0.6186461
0.6186461
0.6186461
0.6186461
0.6186461
0.6186333
0.6186333
0.6186333
0.6186333
0.6186333
0.618145
0.618145
0.618145
0.618145
0.618145
0.6170478
0.6170478
0.6170478
0.6170478
0.6170478
0.6170596
0.6170596
0.6170596
0.6170596
0.6170596
0.618174
0.618174
0.618174
0.618174
0.618174
0.6186436
0.6186436
0.6186436
0.6186436
0.6186436
0.6186369
0.6186369
0.6186369
0.6186369
0.6186369
0.6181577
0.6181577
0.6181577
0.6181577
0.6181577
0.6170519
0.6170519
0.6170519
0.6170519
0.6170519
0.6170119
0.6170119
0.6170119
0.6170119
0.6170119
0.6181156
0.6181156
0.6181156
0.6181156
0.6181156
0.6185942
0.6185942
0.6185942
0.6185942
0.6185942
0.6185937
0.6185937
0.6185937
0.6185937
0.6185937
0.618118
0.618118
0.618118
0.618118
0.618118
0.6168556
0.6168556
0.6168556
0.6168556
0.6168556
0.616859
0.616859
0.616859
0.616859
0.616859
0.6179551
0.6179551
0.6179551
0.6179551
0.6179551
0.6184369
0.6184369
0.6184369
0.6184369
0.6184369
0.6184408
0.6184408
0.6184408
0.6184408
0.6184408
0.6179734
0.6179734
0.6179734
0.6179734
0.6179734
0.6168574
0.6168574
0.6168574
0.6168574
0.6168574
0.6168575
0.6168575
0.6168575
0.6168575
0.6168575
0.6179483
0.6179483
0.6179483
0.6179483
0.6179483
0.6184241
0.6184241
0.6184241
0.6184241
0.6184241
0.618525
0.618525
0.618525
0.618525
0.618525
0.6178538
0.6178538
0.6178538
0.6178538
0.6178538
0.6163969
0.6163969
0.6163969
0.6163969
0.6163969
0.6158693
0.6158693
0.6158693
0.6158693
0.6158693
0.6157576
0.6157576
0.6157576
0.6157576
0.6157576
0.6163669
0.6163669
0.6163669
0.6163669
0.6163669
0.6178462
0.6178462
0.6178462
0.6178462
0.6178462
0.6185166
0.6185166
0.6185166
0.6185166
0.6185166
0.6185498
0.6185498
0.6185498
0.6185498
0.6185498
0.6180539
0.6180539
0.6180539
0.6180539
0.6180539
0.6169581
0.6169581
0.6169581
0.6169581
0.6169581
0.6169742
0.6169742
0.6169742
0.6169742
0.6169742
0.6180997
0.6180997
0.6180997
0.6180997
0.6180997
0.6185735
0.6185735
0.6185735
0.6185735
0.6185735
0.6185588
0.6185588
0.6185588
0.6185588
0.6185588
0.6180163
0.6180163
0.6180163
0.6180163
0.6180163
0.6169147
0.6169147
0.6169147
0.6169147
0.6169147
0.6169277
0.6169277
0.6169277
0.6169277
0.6169277
0.6180447
0.6180447
0.6180447
0.6180447
0.6180447
0.6185256
0.6185256
0.6185256
0.6185256
0.6185256
0.6183649
0.6183649
0.6183649
0.6183649
0.6183649
0.6178649
0.6178649
0.6178649
0.6178649
0.6178649
0.6167673
0.6167673
0.6167673
0.6167673
0.6167673
0.6167799
0.6167799
0.6167799
0.6167799
0.6167799
0.6178988
0.6178988
0.6178988
0.6178988
0.6178988
0.618377
0.618377
0.618377
0.618377
0.618377
0.6183702
0.6183702
0.6183702
0.6183702
0.6183702
0.6178836
0.6178836
0.6178836
0.6178836
0.6178836
0.6167717
0.6167717
0.6167717
0.6167717
0.6167717
0.6167782
0.6167782
0.6167782
0.6167782
0.6167782
0.6180317
0.6180317
0.6180317
0.6180317
0.6180317
0.6185222
0.6185222
0.6185222
0.6185222
0.6185222
0.6185201
0.6185201
0.6185201
0.6185201
0.6185201
0.6180294
0.6180294
0.6180294
0.6180294
0.6180294
0.6169193
0.6169193
0.6169193
0.6169193
0.6169193
0.6169728
0.6169728
0.6169728
0.6169728
0.6169728
0.6180815
0.6180815
0.6180815
0.6180815
0.6180815
0.6185666
0.6185666
0.6185666
0.6185666
0.6185666
0.6185677
0.6185677
0.6185677
0.6185677
0.6185677
0.6180839
0.6180839
0.6180839
0.6180839
0.6180839
0.6169644
0.6169644
0.6169644
0.6169644
0.6169644
0.6169658
0.6169658
0.6169658
0.6169658
0.6169658
0.6180654
0.6180654
0.6180654
0.6180654
0.6180654
0.6185464
0.6185464
0.6185464
0.6185464
0.6185464
0.6184913
0.6184913
0.6184913
0.6184913
0.6184913
0.617753
0.617753
0.617753
0.617753
0.617753
0.6162766
0.6162766
0.6162766
0.6162766
0.6162766
0.6157436
0.6157436
0.6157436
0.6157436
0.6157436
0.6156465
0.6156465
0.6156465
0.6156465
0.6156465
0.6162136
0.6162136
0.6162136
0.6162136
0.6162136
0.6175583
0.6175583
0.6175583
0.6175583
0.6175583
0.6182457
0.6182457
0.6182457
0.6182457
0.6182457
0.6182853
0.6182853
0.6182853
0.6182853
0.6182853
0.6177849
0.6177849
0.6177849
0.6177849
0.6177849
0.6166864
0.6166864
0.6166864
0.6166864
0.6166864
0.6167018
0.6167018
0.6167018
0.6167018
0.6167018
0.6178281
0.6178281
0.6178281
0.6178281
0.6178281
0.6183099
0.6183099
0.6183099
0.6183099
0.6183099
0.6182975
0.6182975
0.6182975
0.6182975
0.6182975
0.6178011
0.6178011
0.6178011
0.6178011
0.6178011
0.6168466
0.6168466
0.6168466
0.6168466
0.6168466
0.6168513
0.6168513
0.6168513
0.6168513
0.6168513
0.6179598
0.6179598
0.6179598
0.6179598
0.6179598
0.6184544
0.6184544
0.6184544
0.6184544
0.6184544
0.6184459
0.6184459
0.6184459
0.6184459
0.6184459
0.6179872
0.6179872
0.6179872
0.6179872
0.6179872
0.6168866
0.6168866
0.6168866
0.6168866
0.6168866
0.6168991
0.6168991
0.6168991
0.6168991
0.6168991
0.618019
0.618019
0.618019
0.618019
0.618019
0.6185046
0.6185046
0.6185046
0.6185046
0.6185046
0.6184978
0.6184978
0.6184978
0.6184978
0.6184978
0.6180024
0.6180024
0.6180024
0.6180024
0.6180024
0.6168895
0.6168895
0.6168895
0.6168895
0.6168895
0.6168962
0.6168962
0.6168962
0.6168962
0.6168962
0.618004
0.618004
0.618004
0.618004
0.618004
0.6184531
0.6184531
0.6184531
0.6184531
0.6184531
0.6184476
0.6184476
0.6184476
0.6184476
0.6184476
0.6179432
0.6179432
0.6179432
0.6179432
0.6179432
0.6168417
0.6168417
0.6168417
0.6168417
0.6168417
0.6168563
0.6168563
0.6168563
0.6168563
0.6168563
0.6178177
0.6178177
0.6178177
0.6178177
0.6178177
0.618304
0.618304
0.618304
0.618304
0.618304
0.6183026
0.6183026
0.6183026
0.6183026
0.6183026
0.6178106
0.6178106
0.6178106
0.6178106
0.6178106
0.6166905
0.6166905
0.6166905
0.6166905
0.6166905
0.6166928
0.6166928
0.6166928
0.6166928
0.6166928
0.6177951
0.6177951
0.6177951
0.6177951
0.6177951
0.6182802
0.6182802
0.6182802
0.6182802
0.6182802
0.6182183
0.6182183
0.6182183
0.6182183
0.6182183
0.6175102
0.6175102
0.6175102
0.6175102
0.6175102
0.6161683
0.6161683
0.6161683
0.6161683
0.6161683
0.6156306
0.6156306
0.6156306
0.6156306
0.6156306
0.6155456
0.6155456
0.6155456
0.6155456
0.6155456
0.6161151
0.6161151
0.6161151
0.6161151
0.6161151
0.6176162
0.6176162
0.6176162
0.6176162
0.6176162
0.6183702
0.6183702
0.6183702
0.6183702
0.6183702
0.6184174
0.6184174
0.6184174
0.6184174
0.6184174
0.6179135
0.6179135
0.6179135
0.6179135
0.6179135
0.6168145
0.6168145
0.6168145
0.6168145
0.6168145
0.6168288
0.6168288
0.6168288
0.6168288
0.6168288
0.617953
0.617953
0.617953
0.617953
0.617953
0.6184428
0.6184428
0.6184428
0.6184428
0.6184428
0.618433
0.618433
0.618433
0.618433
0.618433
0.6179352
0.6179352
0.6179352
0.6179352
0.6179352
0.6168345
0.6168345
0.6168345
0.6168345
0.6168345
0.6167831
0.6167831
0.6167831
0.6167831
0.6167831
0.6178795
0.6178795
0.6178795
0.6178795
0.6178795
0.6183859
0.6183859
0.6183859
0.6183859
0.6183859
0.6183812
0.6183812
0.6183812
0.6183812
0.6183812
0.617872
0.617872
0.617872
0.617872
0.617872