/*--------------------------------*- C++ -*----------------------------------*\
| =========                 |                                                 |
| \\      /  F ield         | OpenFOAM: The Open Source CFD Toolbox           |
|  \\    /   O peration     | Version:  4.0                                   |
|   \\  /    A nd           | Web:      www.OpenFOAM.org                      |
|    \\/     M anipulation  |                                                 |
\*---------------------------------------------------------------------------*/
FoamFile
{
    version     2.0;
    format      ascii;
    class       volScalarField;
    location    "120/electrolyte";
    object      etaConC;
}
// * * * * * * * * * * * * * * * * * * * * * * * * * * * * * * * * * * * * * //

dimensions      [1 2 -3 0 0 -1 0];

internalField   nonuniform List<scalar> 
4840
(
0.00247458
0.00247458
0.00247458
0.00247458
0.00247458
0.002517731
0.002517731
0.002517731
0.002517731
0.002517731
0.002571062
0.002571062
0.002571062
0.002571062
0.002571062
0.00257817
0.00257817
0.00257817
0.00257817
0.00257817
0.00257674
0.00257674
0.00257674
0.00257674
0.00257674
0.002564783
0.002564783
0.002564783
0.002564783
0.002564783
0.002515346
0.002515346
0.002515346
0.002515346
0.002515346
0.002517902
0.002517902
0.002517902
0.002517902
0.002517902
0.002565446
0.002565446
0.002565446
0.002565446
0.002565446
0.002571403
0.002571403
0.002571403
0.002571403
0.002571403
0.002562505
0.002562505
0.002562505
0.002562505
0.002562505
0.00255638
0.00255638
0.00255638
0.00255638
0.00255638
0.002508397
0.002508397
0.002508397
0.002508397
0.002508397
0.002508883
0.002508883
0.002508883
0.002508883
0.002508883
0.002556634
0.002556634
0.002556634
0.002556634
0.002556634
0.002559518
0.002559518
0.002559518
0.002559518
0.002559518
0.00255945
0.00255945
0.00255945
0.00255945
0.00255945
0.002553358
0.002553358
0.002553358
0.002553358
0.002553358
0.002505573
0.002505573
0.002505573
0.002505573
0.002505573
0.002505838
0.002505838
0.002505838
0.002505838
0.002505838
0.002553427
0.002553427
0.002553427
0.002553427
0.002553427
0.002559383
0.002559383
0.002559383
0.002559383
0.002559383
0.002559343
0.002559343
0.002559343
0.002559343
0.002559343
0.002553262
0.002553262
0.002553262
0.002553262
0.002553262
0.002505573
0.002505573
0.002505573
0.002505573
0.002505573
0.002507986
0.002507986
0.002507986
0.002507986
0.002507986
0.002555844
0.002555844
0.002555844
0.002555844
0.002555844
0.002561815
0.002561815
0.002561815
0.002561815
0.002561815
0.002561804
0.002561804
0.002561804
0.002561804
0.002561804
0.002555699
0.002555699
0.002555699
0.002555699
0.002555699
0.002514353
0.002514353
0.002514353
0.002514353
0.002514353
0.002514087
0.002514087
0.002514087
0.002514087
0.002514087
0.002562191
0.002562191
0.002562191
0.002562191
0.002562191
0.002568208
0.002568208
0.002568208
0.002568208
0.002568208
0.002568319
0.002568319
0.002568319
0.002568319
0.002568319
0.002562113
0.002562113
0.002562113
0.002562113
0.002562113
0.002514638
0.002514638
0.002514638
0.002514638
0.002514638
0.002512284
0.002512284
0.002512284
0.002512284
0.002512284
0.002561673
0.002561673
0.002561673
0.002561673
0.002561673
0.002568039
0.002568039
0.002568039
0.002568039
0.002568039
0.002562666
0.002562666
0.002562666
0.002562666
0.002562666
0.002554936
0.002554936
0.002554936
0.002554936
0.002554936
0.002501131
0.002501131
0.002501131
0.002501131
0.002501131
0.002457606
0.002457606
0.002457606
0.002457606
0.002457606
0.002471661
0.002471661
0.002471661
0.002471661
0.002471661
0.002499519
0.002499519
0.002499519
0.002499519
0.002499519
0.002537116
0.002537116
0.002537116
0.002537116
0.002537116
0.002542839
0.002542839
0.002542839
0.002542839
0.002542839
0.002541419
0.002541419
0.002541419
0.002541419
0.002541419
0.002534315
0.002534315
0.002534315
0.002534315
0.002534315
0.002494568
0.002494568
0.002494568
0.002494568
0.002494568
0.002497574
0.002497574
0.002497574
0.002497574
0.002497574
0.002535446
0.002535446
0.002535446
0.002535446
0.002535446
0.00254155
0.00254155
0.00254155
0.00254155
0.00254155
0.002541365
0.002541365
0.002541365
0.002541365
0.002541365
0.002537305
0.002537305
0.002537305
0.002537305
0.002537305
0.002498594
0.002498594
0.002498594
0.002498594
0.002498594
0.002499344
0.002499344
0.002499344
0.002499344
0.002499344
0.002537764
0.002537764
0.002537764
0.002537764
0.002537764
0.002544041
0.002544041
0.002544041
0.002544041
0.002544041
0.002550327
0.002550327
0.002550327
0.002550327
0.002550327
0.00254381
0.00254381
0.00254381
0.00254381
0.00254381
0.002505185
0.002505185
0.002505185
0.002505185
0.002505185
0.002505576
0.002505576
0.002505576
0.002505576
0.002505576
0.002544154
0.002544154
0.002544154
0.002544154
0.002544154
0.002550421
0.002550421
0.002550421
0.002550421
0.002550421
0.002550332
0.002550332
0.002550332
0.002550332
0.002550332
0.00254386
0.00254386
0.00254386
0.00254386
0.00254386
0.002505374
0.002505374
0.002505374
0.002505374
0.002505374
0.002505332
0.002505332
0.002505332
0.002505332
0.002505332
0.002537629
0.002537629
0.002537629
0.002537629
0.002537629
0.002543965
0.002543965
0.002543965
0.002543965
0.002543965
0.002543909
0.002543909
0.002543909
0.002543909
0.002543909
0.002537459
0.002537459
0.002537459
0.002537459
0.002537459
0.002499104
0.002499104
0.002499104
0.002499104
0.002499104
0.002496192
0.002496192
0.002496192
0.002496192
0.002496192
0.002534971
0.002534971
0.002534971
0.002534971
0.002534971
0.002541364
0.002541364
0.002541364
0.002541364
0.002541364
0.002541433
0.002541433
0.002541433
0.002541433
0.002541433
0.002535156
0.002535156
0.002535156
0.002535156
0.002535156
0.002497358
0.002497358
0.002497358
0.002497358
0.002497358
0.002494678
0.002494678
0.002494678
0.002494678
0.002494678
0.002534471
0.002534471
0.002534471
0.002534471
0.002534471
0.002541365
0.002541365
0.002541365
0.002541365
0.002541365
0.00254251
0.00254251
0.00254251
0.00254251
0.00254251
0.002538881
0.002538881
0.002538881
0.002538881
0.002538881
0.002501126
0.002501126
0.002501126
0.002501126
0.002501126
0.002471243
0.002471243
0.002471243
0.002471243
0.002471243
0.002466221
0.002466221
0.002466221
0.002466221
0.002466221
0.002491442
0.002491442
0.002491442
0.002491442
0.002491442
0.002532474
0.002532474
0.002532474
0.002532474
0.002532474
0.002538939
0.002538939
0.002538939
0.002538939
0.002538939
0.002537254
0.002537254
0.002537254
0.002537254
0.002537254
0.00252873
0.00252873
0.00252873
0.00252873
0.00252873
0.002493246
0.002493246
0.002493246
0.002493246
0.002493246
0.002495882
0.002495882
0.002495882
0.002495882
0.002495882
0.002530217
0.002530217
0.002530217
0.002530217
0.002530217
0.00253749
0.00253749
0.00253749
0.00253749
0.00253749
0.002537197
0.002537197
0.002537197
0.002537197
0.002537197
0.002529267
0.002529267
0.002529267
0.002529267
0.002529267
0.002488038
0.002488038
0.002488038
0.002488038
0.002488038
0.002489038
0.002489038
0.002489038
0.002489038
0.002489038
0.002523612
0.002523612
0.002523612
0.002523612
0.002523612
0.002531054
0.002531054
0.002531054
0.002531054
0.002531054
0.002530833
0.002530833
0.002530833
0.002530833
0.002530833
0.002520511
0.002520511
0.002520511
0.002520511
0.002520511
0.002485836
0.002485836
0.002485836
0.002485836
0.002485836
0.002486336
0.002486336
0.002486336
0.002486336
0.002486336
0.002521011
0.002521011
0.002521011
0.002521011
0.002521011
0.002528507
0.002528507
0.002528507
0.002528507
0.002528507
0.002528368
0.002528368
0.002528368
0.002528368
0.002528368
0.002520633
0.002520633
0.002520633
0.002520633
0.002520633
0.0024861
0.0024861
0.0024861
0.0024861
0.0024861
0.002486069
0.002486069
0.002486069
0.002486069
0.002486069
0.002520915
0.002520915
0.002520915
0.002520915
0.002520915
0.002531002
0.002531002
0.002531002
0.002531002
0.002531002
0.002530912
0.002530912
0.002530912
0.002530912
0.002530912
0.00252323
0.00252323
0.00252323
0.00252323
0.00252323
0.002488784
0.002488784
0.002488784
0.002488784
0.002488784
0.002488254
0.002488254
0.002488254
0.002488254
0.002488254
0.002529638
0.002529638
0.002529638
0.002529638
0.002529638
0.002537324
0.002537324
0.002537324
0.002537324
0.002537324
0.002537364
0.002537364
0.002537364
0.002537364
0.002537364
0.002529852
0.002529852
0.002529852
0.002529852
0.002529852
0.00249565
0.00249565
0.00249565
0.00249565
0.00249565
0.002493469
0.002493469
0.002493469
0.002493469
0.002493469
0.002529063
0.002529063
0.002529063
0.002529063
0.002529063
0.002537279
0.002537279
0.002537279
0.002537279
0.002537279
0.002538535
0.002538535
0.002538535
0.002538535
0.002538535
0.002531562
0.002531562
0.002531562
0.002531562
0.002531562
0.002490496
0.002490496
0.002490496
0.002490496
0.002490496
0.002465996
0.002465996
0.002465996
0.002465996
0.002465996
0.002458923
0.002458923
0.002458923
0.002458923
0.002458923
0.002478748
0.002478748
0.002478748
0.002478748
0.002478748
0.002513427
0.002513427
0.002513427
0.002513427
0.002513427
0.002519198
0.002519198
0.002519198
0.002519198
0.002519198
0.00251755
0.00251755
0.00251755
0.00251755
0.00251755
0.002506878
0.002506878
0.002506878
0.002506878
0.002506878
0.002474723
0.002474723
0.002474723
0.002474723
0.002474723
0.002476577
0.002476577
0.002476577
0.002476577
0.002476577
0.002508977
0.002508977
0.002508977
0.002508977
0.002508977
0.002517905
0.002517905
0.002517905
0.002517905
0.002517905
0.002517463
0.002517463
0.002517463
0.002517463
0.002517463
0.002507464
0.002507464
0.002507464
0.002507464
0.002507464
0.002475544
0.002475544
0.002475544
0.002475544
0.002475544
0.002478858
0.002478858
0.002478858
0.002478858
0.002478858
0.002511195
0.002511195
0.002511195
0.002511195
0.002511195
0.002520388
0.002520388
0.002520388
0.002520388
0.002520388
0.002520079
0.002520079
0.002520079
0.002520079
0.002520079
0.002510249
0.002510249
0.002510249
0.002510249
0.002510249
0.002484603
0.002484603
0.002484603
0.002484603
0.002484603
0.002485071
0.002485071
0.002485071
0.002485071
0.002485071
0.002517405
0.002517405
0.002517405
0.002517405
0.002517405
0.002526753
0.002526753
0.002526753
0.002526753
0.002526753
0.002526569
0.002526569
0.002526569
0.002526569
0.002526569
0.002516957
0.002516957
0.002516957
0.002516957
0.002516957
0.002484813
0.002484813
0.002484813
0.002484813
0.002484813
0.002484912
0.002484912
0.002484912
0.002484912
0.002484912
0.002517157
0.002517157
0.002517157
0.002517157
0.002517157
0.002526709
0.002526709
0.002526709
0.002526709
0.002526709
0.002520247
0.002520247
0.002520247
0.002520247
0.002520247
0.002510765
0.002510765
0.002510765
0.002510765
0.002510765
0.002478604
0.002478604
0.002478604
0.002478604
0.002478604
0.002478347
0.002478347
0.002478347
0.002478347
0.002478347
0.002510477
0.002510477
0.002510477
0.002510477
0.002510477
0.002517696
0.002517696
0.002517696
0.002517696
0.002517696
0.002517789
0.002517789
0.002517789
0.002517789
0.002517789
0.002508568
0.002508568
0.002508568
0.002508568
0.002508568
0.002476352
0.002476352
0.002476352
0.002476352
0.002476352
0.002475034
0.002475034
0.002475034
0.002475034
0.002475034
0.002507342
0.002507342
0.002507342
0.002507342
0.002507342
0.002517627
0.002517627
0.002517627
0.002517627
0.002517627
0.002518715
0.002518715
0.002518715
0.002518715
0.002518715
0.002509861
0.002509861
0.002509861
0.002509861
0.002509861
0.00247523
0.00247523
0.00247523
0.00247523
0.00247523
0.002458787
0.002458787
0.002458787
0.002458787
0.002458787
0.002452643
0.002452643
0.002452643
0.002452643
0.002452643
0.002468673
0.002468673
0.002468673
0.002468673
0.002468673
0.002503362
0.002503362
0.002503362
0.002503362
0.002503362
0.002513384
0.002513384
0.002513384
0.002513384
0.002513384
0.002518299
0.002518299
0.002518299
0.002518299
0.002518299
0.002506567
0.002506567
0.002506567
0.002506567
0.002506567
0.002475234
0.002475234
0.002475234
0.002475234
0.002475234
0.002476571
0.002476571
0.002476571
0.002476571
0.002476571
0.002508567
0.002508567
0.002508567
0.002508567
0.002508567
0.002518746
0.002518746
0.002518746
0.002518746
0.002518746
0.002518204
0.002518204
0.002518204
0.002518204
0.002518204
0.002507021
0.002507021
0.002507021
0.002507021
0.002507021
0.002475911
0.002475911
0.002475911
0.002475911
0.002475911
0.002476621
0.002476621
0.002476621
0.002476621
0.002476621
0.00250214
0.00250214
0.00250214
0.00250214
0.00250214
0.002512331
0.002512331
0.002512331
0.002512331
0.002512331
0.002511933
0.002511933
0.002511933
0.002511933
0.002511933
0.00250095
0.00250095
0.00250095
0.00250095
0.00250095
0.002469717
0.002469717
0.002469717
0.002469717
0.002469717
0.002467731
0.002467731
0.002467731
0.002467731
0.002467731
0.002499439
0.002499439
0.002499439
0.002499439
0.002499439
0.002509785
0.002509785
0.002509785
0.002509785
0.002509785
0.002509573
0.002509573
0.002509573
0.002509573
0.002509573
0.002498904
0.002498904
0.002498904
0.002498904
0.002498904
0.002467544
0.002467544
0.002467544
0.002467544
0.002467544
0.002467714
0.002467714
0.002467714
0.002467714
0.002467714
0.002499136
0.002499136
0.002499136
0.002499136
0.002499136
0.00250979
0.00250979
0.00250979
0.00250979
0.00250979
0.002509779
0.002509779
0.002509779
0.002509779
0.002509779
0.00250233
0.00250233
0.00250233
0.00250233
0.00250233
0.002470672
0.002470672
0.002470672
0.002470672
0.002470672
0.00247059
0.00247059
0.00247059
0.00247059
0.00247059
0.002501881
0.002501881
0.002501881
0.002501881
0.002501881
0.002512739
0.002512739
0.002512739
0.002512739
0.002512739
0.002521518
0.002521518
0.002521518
0.002521518
0.002521518
0.002511127
0.002511127
0.002511127
0.002511127
0.002511127
0.002479312
0.002479312
0.002479312
0.002479312
0.002479312
0.002478577
0.002478577
0.002478577
0.002478577
0.002478577
0.002510083
0.002510083
0.002510083
0.002510083
0.002510083
0.002526653
0.002526653
0.002526653
0.002526653
0.002526653
0.002527494
0.002527494
0.002527494
0.002527494
0.002527494
0.002516801
0.002516801
0.002516801
0.002516801
0.002516801
0.00248208
0.00248208
0.00248208
0.00248208
0.00248208
0.002466963
0.002466963
0.002466963
0.002466963
0.002466963
0.002462579
0.002462579
0.002462579
0.002462579
0.002462579
0.002475582
0.002475582
0.002475582
0.002475582
0.002475582
0.002509327
0.002509327
0.002509327
0.002509327
0.002509327
0.002522026
0.002522026
0.002522026
0.002522026
0.002522026
0.002520877
0.002520877
0.002520877
0.002520877
0.002520877
0.002503078
0.002503078
0.002503078
0.002503078
0.002503078
0.002472504
0.002472504
0.002472504
0.002472504
0.002472504
0.002473491
0.002473491
0.002473491
0.002473491
0.002473491
0.002504682
0.002504682
0.002504682
0.002504682
0.002504682
0.002516242
0.002516242
0.002516242
0.002516242
0.002516242
0.002508618
0.002508618
0.002508618
0.002508618
0.002508618
0.002496008
0.002496008
0.002496008
0.002496008
0.002496008
0.002465888
0.002465888
0.002465888
0.002465888
0.002465888
0.002466563
0.002466563
0.002466563
0.002466563
0.002466563
0.002497893
0.002497893
0.002497893
0.002497893
0.002497893
0.00250673
0.00250673
0.00250673
0.00250673
0.00250673
0.002506255
0.002506255
0.002506255
0.002506255
0.002506255
0.002493939
0.002493939
0.002493939
0.002493939
0.002493939
0.002463476
0.002463476
0.002463476
0.002463476
0.002463476
0.002463934
0.002463934
0.002463934
0.002463934
0.002463934
0.002494776
0.002494776
0.002494776
0.002494776
0.002494776
0.002506492
0.002506492
0.002506492
0.002506492
0.002506492
0.002506258
0.002506258
0.002506258
0.002506258
0.002506258
0.002494196
0.002494196
0.002494196
0.002494196
0.002494196
0.002463468
0.002463468
0.002463468
0.002463468
0.002463468
0.002465704
0.002465704
0.002465704
0.002465704
0.002465704
0.002496418
0.002496418
0.002496418
0.002496418
0.002496418
0.002508392
0.002508392
0.002508392
0.002508392
0.002508392
0.002508406
0.002508406
0.002508406
0.002508406
0.002508406
0.002496614
0.002496614
0.002496614
0.002496614
0.002496614
0.002470446
0.002470446
0.002470446
0.002470446
0.002470446
0.002470446
0.002470446
0.002470446
0.002470446
0.002470446
0.002500841
0.002500841
0.002500841
0.002500841
0.002500841
0.002513123
0.002513123
0.002513123
0.002513123
0.002513123
0.002513236
0.002513236
0.002513236
0.002513236
0.002513236
0.002501224
0.002501224
0.002501224
0.002501224
0.002501224
0.002470276
0.002470276
0.002470276
0.002470276
0.002470276
0.002469932
0.002469932
0.002469932
0.002469932
0.002469932
0.002500648
0.002500648
0.002500648
0.002500648
0.002500648
0.002513052
0.002513052
0.002513052
0.002513052
0.002513052
0.002508415
0.002508415
0.002508415
0.002508415
0.002508415
0.002495043
0.002495043
0.002495043
0.002495043
0.002495043
0.002461476
0.002461476
0.002461476
0.002461476
0.002461476
0.002449523
0.002449523
0.002449523
0.002449523
0.002449523
0.002444522
0.002444522
0.002444522
0.002444522
0.002444522
0.002453493
0.002453493
0.002453493
0.002453493
0.002453493
0.002486896
0.002486896
0.002486896
0.002486896
0.002486896
0.002501265
0.002501265
0.002501265
0.002501265
0.002501265
0.002500406
0.002500406
0.002500406
0.002500406
0.002500406
0.002486656
0.002486656
0.002486656
0.002486656
0.002486656
0.002456272
0.002456272
0.002456272
0.002456272
0.002456272
0.00245707
0.00245707
0.00245707
0.00245707
0.00245707
0.002488435
0.002488435
0.002488435
0.002488435
0.002488435
0.002500701
0.002500701
0.002500701
0.002500701
0.002500701
0.002500034
0.002500034
0.002500034
0.002500034
0.002500034
0.002488684
0.002488684
0.002488684
0.002488684
0.002488684
0.002458515
0.002458515
0.002458515
0.002458515
0.002458515
0.002459177
0.002459177
0.002459177
0.002459177
0.002459177
0.002490688
0.002490688
0.002490688
0.002490688
0.002490688
0.002502899
0.002502899
0.002502899
0.002502899
0.002502899
0.00250735
0.00250735
0.00250735
0.00250735
0.00250735
0.002494249
0.002494249
0.002494249
0.002494249
0.002494249
0.002463596
0.002463596
0.002463596
0.002463596
0.002463596
0.002464038
0.002464038
0.002464038
0.002464038
0.002464038
0.002495109
0.002495109
0.002495109
0.002495109
0.002495109
0.00250767
0.00250767
0.00250767
0.00250767
0.00250767
0.00250742
0.00250742
0.00250742
0.00250742
0.00250742
0.002494471
0.002494471
0.002494471
0.002494471
0.002494471
0.00246366
0.00246366
0.00246366
0.00246366
0.00246366
0.00246393
0.00246393
0.00246393
0.00246393
0.00246393
0.002489867
0.002489867
0.002489867
0.002489867
0.002489867
0.002502593
0.002502593
0.002502593
0.002502593
0.002502593
0.002502611
0.002502611
0.002502611
0.002502611
0.002502611
0.002490037
0.002490037
0.002490037
0.002490037
0.002490037
0.002458777
0.002458777
0.002458777
0.002458777
0.002458777
0.002456761
0.002456761
0.002456761
0.002456761
0.002456761
0.002487169
0.002487169
0.002487169
0.002487169
0.002487169
0.00250022
0.00250022
0.00250022
0.00250022
0.00250022
0.002500398
0.002500398
0.002500398
0.002500398
0.002500398
0.002487758
0.002487758
0.002487758
0.002487758
0.002487758
0.002456619
0.002456619
0.002456619
0.002456619
0.002456619
0.002456484
0.002456484
0.002456484
0.002456484
0.002456484
0.002487018
0.002487018
0.002487018
0.002487018
0.002487018
0.002500245
0.002500245
0.002500245
0.002500245
0.002500245
0.002500321
0.002500321
0.002500321
0.002500321
0.002500321
0.002487271
0.002487271
0.002487271
0.002487271
0.002487271
0.002453935
0.002453935
0.002453935
0.002453935
0.002453935
0.002443936
0.002443936
0.002443936
0.002443936
0.002443936
0.002439359
0.002439359
0.002439359
0.002439359
0.002439359
0.00244928
0.00244928
0.00244928
0.00244928
0.00244928
0.002487728
0.002487728
0.002487728
0.002487728
0.002487728
0.002503357
0.002503357
0.002503357
0.002503357
0.002503357
0.002502727
0.002502727
0.002502727
0.002502727
0.002502727
0.002488279
0.002488279
0.002488279
0.002488279
0.002488279
0.002457721
0.002457721
0.002457721
0.002457721
0.002457721
0.002458449
0.002458449
0.002458449
0.002458449
0.002458449
0.002490439
0.002490439
0.002490439
0.002490439
0.002490439
0.002503163
0.002503163
0.002503163
0.002503163
0.002503163
0.002502427
0.002502427
0.002502427
0.002502427
0.002502427
0.002488449
0.002488449
0.002488449
0.002488449
0.002488449
0.00245292
0.00245292
0.00245292
0.00245292
0.00245292
0.002453572
0.002453572
0.002453572
0.002453572
0.002453572
0.002485457
0.002485457
0.002485457
0.002485457
0.002485457
0.002498272
0.002498272
0.002498272
0.002498272
0.002498272
0.002497739
0.002497739
0.002497739
0.002497739
0.002497739
0.002482073
0.002482073
0.002482073
0.002482073
0.002482073
0.002451025
0.002451025
0.002451025
0.002451025
0.002451025
0.002451441
0.002451441
0.002451441
0.002451441
0.002451441
0.002482766
0.002482766
0.002482766
0.002482766
0.002482766
0.002495963
0.002495963
0.002495963
0.002495963
0.002495963
0.002495703
0.002495703
0.002495703
0.002495703
0.002495703
0.002482132
0.002482132
0.002482132
0.002482132
0.002482132
0.002451076
0.002451076
0.002451076
0.002451076
0.002451076
0.002451391
0.002451391
0.002451391
0.002451391
0.002451391
0.002482719
0.002482719
0.002482719
0.002482719
0.002482719
0.002498014
0.002498014
0.002498014
0.002498014
0.002498014
0.002498014
0.002498014
0.002498014
0.002498014
0.002498014
0.002484824
0.002484824
0.002484824
0.002484824
0.002484824
0.002453202
0.002453202
0.002453202
0.002453202
0.002453202
0.002453284
0.002453284
0.002453284
0.002453284
0.002453284
0.002489082
0.002489082
0.002489082
0.002489082
0.002489082
0.002502681
0.002502681
0.002502681
0.002502681
0.002502681
0.002502896
0.002502896
0.002502896
0.002502896
0.002502896
0.002489785
0.002489785
0.002489785
0.002489785
0.002489785
0.002458035
0.002458035
0.002458035
0.002458035
0.002458035
0.00245799
0.00245799
0.00245799
0.00245799
0.00245799
0.002488714
0.002488714
0.002488714
0.002488714
0.002488714
0.002502605
0.002502605
0.002502605
0.002502605
0.002502605
0.002502404
0.002502404
0.002502404
0.002502404
0.002502404
0.002486
0.002486
0.002486
0.002486
0.002486
0.002447649
0.002447649
0.002447649
0.002447649
0.002447649
0.002438822
0.002438822
0.002438822
0.002438822
0.002438822
0.002434695
0.002434695
0.002434695
0.002434695
0.002434695
0.002444065
0.002444065
0.002444065
0.002444065
0.002444065
0.002477991
0.002477991
0.002477991
0.002477991
0.002477991
0.002492288
0.002492288
0.002492288
0.002492288
0.002492288
0.00249182
0.00249182
0.00249182
0.00249182
0.00249182
0.002476967
0.002476967
0.002476967
0.002476967
0.002476967
0.002446104
0.002446104
0.002446104
0.002446104
0.002446104
0.002446803
0.002446803
0.002446803
0.002446803
0.002446803
0.002479275
0.002479275
0.002479275
0.002479275
0.002479275
0.002492343
0.002492343
0.002492343
0.002492343
0.002492343
0.002491557
0.002491557
0.002491557
0.002491557
0.002491557
0.002477108
0.002477108
0.002477108
0.002477108
0.002477108
0.002446189
0.002446189
0.002446189
0.002446189
0.002446189
0.002448908
0.002448908
0.002448908
0.002448908
0.002448908
0.002481355
0.002481355
0.002481355
0.002481355
0.002481355
0.002494528
0.002494528
0.002494528
0.002494528
0.002494528
0.002493994
0.002493994
0.002493994
0.002493994
0.002493994
0.002480021
0.002480021
0.002480021
0.002480021
0.002480021
0.002453333
0.002453333
0.002453333
0.002453333
0.002453333
0.002453726
0.002453726
0.002453726
0.002453726
0.002453726
0.002485538
0.002485538
0.002485538
0.002485538
0.002485538
0.002499203
0.002499203
0.002499203
0.002499203
0.002499203
0.002498935
0.002498935
0.002498935
0.002498935
0.002498935
0.002484907
0.002484907
0.002484907
0.002484907
0.002484907
0.002453371
0.002453371
0.002453371
0.002453371
0.002453371
0.00245373
0.00245373
0.00245373
0.00245373
0.00245373
0.002485662
0.002485662
0.002485662
0.002485662
0.002485662
0.002499267
0.002499267
0.002499267
0.002499267
0.002499267
0.002494301
0.002494301
0.002494301
0.002494301
0.002494301
0.002480745
0.002480745
0.002480745
0.002480745
0.002480745
0.002448571
0.002448571
0.002448571
0.002448571
0.002448571
0.002448656
0.002448656
0.002448656
0.002448656
0.002448656
0.002479866
0.002479866
0.002479866
0.002479866
0.002479866
0.002491875
0.002491875
0.002491875
0.002491875
0.002491875
0.002492127
0.002492127
0.002492127
0.002492127
0.002492127
0.002478666
0.002478666
0.002478666
0.002478666
0.002478666
0.002446441
0.002446441
0.002446441
0.002446441
0.002446441
0.002446433
0.002446433
0.002446433
0.002446433
0.002446433
0.002477472
0.002477472
0.002477472
0.002477472
0.002477472
0.002491756
0.002491756
0.002491756
0.002491756
0.002491756
0.002491363
0.002491363
0.002491363
0.002491363
0.002491363
0.002474223
0.002474223
0.002474223
0.002474223
0.002474223
0.002440414
0.002440414
0.002440414
0.002440414
0.002440414
0.002434234
0.002434234
0.002434234
0.002434234
0.002434234
0.002430597
0.002430597
0.002430597
0.002430597
0.002430597
0.002439711
0.002439711
0.002439711
0.002439711
0.002439711
0.002474093
0.002474093
0.002474093
0.002474093
0.002474093
0.002491055
0.002491055
0.002491055
0.002491055
0.002491055
0.002495733
0.002495733
0.002495733
0.002495733
0.002495733
0.002480557
0.002480557
0.002480557
0.002480557
0.002480557
0.002449257
0.002449257
0.002449257
0.002449257
0.002449257
0.002449931
0.002449931
0.002449931
0.002449931
0.002449931
0.002482745
0.002482745
0.002482745
0.002482745
0.002482745
0.002496331
0.002496331
0.002496331
0.002496331
0.002496331
0.00249554
0.00249554
0.00249554
0.00249554
0.00249554
0.00248069
0.00248069
0.00248069
0.00248069
0.00248069
0.002449392
0.002449392
0.002449392
0.002449392
0.002449392
0.002450058
0.002450058
0.002450058
0.002450058
0.002450058
0.002477968
0.002477968
0.002477968
0.002477968
0.002477968
0.002491519
0.002491519
0.002491519
0.002491519
0.002491519
0.002490988
0.002490988
0.002490988
0.002490988
0.002490988
0.002476568
0.002476568
0.002476568
0.002476568
0.002476568
0.002444665
0.002444665
0.002444665
0.002444665
0.002444665
0.002443061
0.002443061
0.002443061
0.002443061
0.002443061
0.002475265
0.002475265
0.002475265
0.002475265
0.002475265
0.002489195
0.002489195
0.002489195
0.002489195
0.002489195
0.002488922
0.002488922
0.002488922
0.002488922
0.002488922
0.002474605
0.002474605
0.002474605
0.002474605
0.002474605
0.002442805
0.002442805
0.002442805
0.002442805
0.002442805
0.002443166
0.002443166
0.002443166
0.002443166
0.002443166
0.002475326
0.002475326
0.002475326
0.002475326
0.002475326
0.002489349
0.002489349
0.002489349
0.002489349
0.002489349
0.002489344
0.002489344
0.002489344
0.002489344
0.002489344
0.002477988
0.002477988
0.002477988
0.002477988
0.002477988
0.002445474
0.002445474
0.002445474
0.002445474
0.002445474
0.002445568
0.002445568
0.002445568
0.002445568
0.002445568
0.002477119
0.002477119
0.002477119
0.002477119
0.002477119
0.002491561
0.002491561
0.002491561
0.002491561
0.002491561
0.002498782
0.002498782
0.002498782
0.002498782
0.002498782
0.00248489
0.00248489
0.00248489
0.00248489
0.00248489
0.002452288
0.002452288
0.002452288
0.002452288
0.002452288
0.002452315
0.002452315
0.002452315
0.002452315
0.002452315
0.002483794
0.002483794
0.002483794
0.002483794
0.002483794
0.002503232
0.002503232
0.002503232
0.002503232
0.002503232
0.002502666
0.002502666
0.002502666
0.002502666
0.002502666
0.002484865
0.002484865
0.002484865
0.002484865
0.002484865
0.002450498
0.002450498
0.002450498
0.002450498
0.002450498
0.002442512
0.002442512
0.002442512
0.002442512
0.002442512
0.002441484
0.002441484
0.002441484
0.002441484
0.002441484
0.00245053
0.00245053
0.00245053
0.00245053
0.00245053
0.002485446
0.002485446
0.002485446
0.002485446
0.002485446
0.002502929
0.002502929
0.002502929
0.002502929
0.002502929
0.002502726
0.002502726
0.002502726
0.002502726
0.002502726
0.002482928
0.002482928
0.002482928
0.002482928
0.002482928
0.002451268
0.002451268
0.002451268
0.002451268
0.002451268
0.002451903
0.002451903
0.002451903
0.002451903
0.002451903
0.002484861
0.002484861
0.002484861
0.002484861
0.002484861
0.002498751
0.002498751
0.002498751
0.002498751
0.002498751
0.002491198
0.002491198
0.002491198
0.002491198
0.002491198
0.002476128
0.002476128
0.002476128
0.002476128
0.002476128
0.002444538
0.002444538
0.002444538
0.002444538
0.002444538
0.002445179
0.002445179
0.002445179
0.002445179
0.002445179
0.002478053
0.002478053
0.002478053
0.002478053
0.002478053
0.002489628
0.002489628
0.002489628
0.002489628
0.002489628
0.002489097
0.002489097
0.002489097
0.002489097
0.002489097
0.002474171
0.002474171
0.002474171
0.002474171
0.002474171
0.002442288
0.002442288
0.002442288
0.002442288
0.002442288
0.002442771
0.002442771
0.002442771
0.002442771
0.002442771
0.002475177
0.002475177
0.002475177
0.002475177
0.002475177
0.002489321
0.002489321
0.002489321
0.002489321
0.002489321
0.002489045
0.002489045
0.002489045
0.002489045
0.002489045
0.002474509
0.002474509
0.002474509
0.002474509
0.002474509
0.002442248
0.002442248
0.002442248
0.002442248
0.002442248
0.002444279
0.002444279
0.002444279
0.002444279
0.002444279
0.002476458
0.002476458
0.002476458
0.002476458
0.002476458
0.002490994
0.002490994
0.002490994
0.002490994
0.002490994
0.002490975
0.002490975
0.002490975
0.002490975
0.002490975
0.002476568
0.002476568
0.002476568
0.002476568
0.002476568
0.002448299
0.002448299
0.002448299
0.002448299
0.002448299
0.002448429
0.002448429
0.002448429
0.002448429
0.002448429
0.00248034
0.00248034
0.00248034
0.00248034
0.00248034
0.002495023
0.002495023
0.002495023
0.002495023
0.002495023
0.002495174
0.002495174
0.002495174
0.002495174
0.002495174
0.002480806
0.002480806
0.002480806
0.002480806
0.002480806
0.002448124
0.002448124
0.002448124
0.002448124
0.002448124
0.002448198
0.002448198
0.002448198
0.002448198
0.002448198
0.002479989
0.002479989
0.002479989
0.002479989
0.002479989
0.00249476
0.00249476
0.00249476
0.00249476
0.00249476
0.002489605
0.002489605
0.002489605
0.002489605
0.002489605
0.002471348
0.002471348
0.002471348
0.002471348
0.002471348
0.002436649
0.002436649
0.002436649
0.002436649
0.002436649
0.002428781
0.002428781
0.002428781
0.002428781
0.002428781
0.00242604
0.00242604
0.00242604
0.00242604
0.00242604
0.002433206
0.002433206
0.002433206
0.002433206
0.002433206
0.002468275
0.002468275
0.002468275
0.002468275
0.002468275
0.002486191
0.002486191
0.002486191
0.002486191
0.002486191
0.002486165
0.002486165
0.002486165
0.002486165
0.002486165
0.002470642