/*--------------------------------*- C++ -*----------------------------------*\
| =========                 |                                                 |
| \\      /  F ield         | OpenFOAM: The Open Source CFD Toolbox           |
|  \\    /   O peration     | Version:  4.0                                   |
|   \\  /    A nd           | Web:      www.OpenFOAM.org                      |
|    \\/     M anipulation  |                                                 |
\*---------------------------------------------------------------------------*/
FoamFile
{
    version     2.0;
    format      ascii;
    class       volScalarField;
    location    "120/electrolyte";
    object      etaConC;
}
// * * * * * * * * * * * * * * * * * * * * * * * * * * * * * * * * * * * * * //

dimensions      [1 2 -3 0 0 -1 0];

internalField   nonuniform List<scalar> 
4840
(
0.001207777
0.001207777
0.001207777
0.001207777
0.001207777
0.001204135
0.001204135
0.001204135
0.001204135
0.001204135
0.001199893
0.001199893
0.001199893
0.001199893
0.001199893
0.001201065
0.001201065
0.001201065
0.001201065
0.001201065
0.001205245
0.001205245
0.001205245
0.001205245
0.001205245
0.001204008
0.001204008
0.001204008
0.001204008
0.001204008
0.001206714
0.001206714
0.001206714
0.001206714
0.001206714
0.001207554
0.001207554
0.001207554
0.001207554
0.001207554
0.001204687
0.001204687
0.001204687
0.001204687
0.001204687
0.001209172
0.001209172
0.001209172
0.001209172
0.001209172
0.001214621
0.001214621
0.001214621
0.001214621
0.001214621
0.001206349
0.001206349
0.001206349
0.001206349
0.001206349
0.001209571
0.001209571
0.001209571
0.001209571
0.001209571
0.001210051
0.001210051
0.001210051
0.001210051
0.001210051
0.001207184
0.001207184
0.001207184
0.001207184
0.001207184
0.001214699
0.001214699
0.001214699
0.001214699
0.001214699
0.001215273
0.001215273
0.001215273
0.001215273
0.001215273
0.001207395
0.001207395
0.001207395
0.001207395
0.001207395
0.001210237
0.001210237
0.001210237
0.001210237
0.001210237
0.001210373
0.001210373
0.001210373
0.001210373
0.001210373
0.001207625
0.001207625
0.001207625
0.001207625
0.001207625
0.001215865
0.001215865
0.001215865
0.001215865
0.001215865
0.00121577
0.00121577
0.00121577
0.00121577
0.00121577
0.001207609
0.001207609
0.001207609
0.001207609
0.001207609
0.001210287
0.001210287
0.001210287
0.001210287
0.001210287
0.001210232
0.001210232
0.001210232
0.001210232
0.001210232
0.001207397
0.001207397
0.001207397
0.001207397
0.001207397
0.001215246
0.001215246
0.001215246
0.001215246
0.001215246
0.001214678
0.001214678
0.001214678
0.001214678
0.001214678
0.001207116
0.001207116
0.001207116
0.001207116
0.001207116
0.00121
0.00121
0.00121
0.00121
0.00121
0.00120953
0.00120953
0.00120953
0.00120953
0.00120953
0.001206298
0.001206298
0.001206298
0.001206298
0.001206298
0.001214488
0.001214488
0.001214488
0.001214488
0.001214488
0.00120914
0.00120914
0.00120914
0.00120914
0.00120914
0.00120466
0.00120466
0.00120466
0.00120466
0.00120466
0.001207537
0.001207537
0.001207537
0.001207537
0.001207537
0.001206703
0.001206703
0.001206703
0.001206703
0.001206703
0.001203971
0.001203971
0.001203971
0.001203971
0.001203971
0.001205212
0.001205212
0.001205212
0.001205212
0.001205212
0.001200958
0.001200958
0.001200958
0.001200958
0.001200958
0.00119985
0.00119985
0.00119985
0.00119985
0.00119985
0.001204078
0.001204078
0.001204078
0.001204078
0.001204078
0.001207695
0.001207695
0.001207695
0.001207695
0.001207695
0.001213236
0.001213236
0.001213236
0.001213236
0.001213236
0.001223643
0.001223643
0.001223643
0.001223643
0.001223643
0.001232813
0.001232813
0.001232813
0.001232813
0.001232813
0.001235145
0.001235145
0.001235145
0.001235145
0.001235145
0.001231582
0.001231582
0.001231582
0.001231582
0.001231582
0.001230355
0.001230355
0.001230355
0.001230355
0.001230355
0.001217943
0.001217943
0.001217943
0.001217943
0.001217943
0.00122527
0.00122527
0.00122527
0.00122527
0.00122527
0.001235983
0.001235983
0.001235983
0.001235983
0.001235983
0.001235427
0.001235427
0.001235427
0.001235427
0.001235427
0.001235177
0.001235177
0.001235177
0.001235177
0.001235177
0.001235568
0.001235568
0.001235568
0.001235568
0.001235568
0.001223222
0.001223222
0.001223222
0.001223222
0.001223222
0.001225562
0.001225562
0.001225562
0.001225562
0.001225562
0.00123693
0.00123693
0.00123693
0.00123693
0.00123693
0.001235999
0.001235999
0.001235999
0.001235999
0.001235999
0.001235896
0.001235896
0.001235896
0.001235896
0.001235896
0.001236591
0.001236591
0.001236591
0.001236591
0.001236591
0.001224649
0.001224649
0.001224649
0.001224649
0.001224649
0.001225232
0.001225232
0.001225232
0.001225232
0.001225232
0.001236868
0.001236868
0.001236868
0.001236868
0.001236868
0.001236042
0.001236042
0.001236042
0.001236042
0.001236042
0.001236017
0.001236017
0.001236017
0.001236017
0.001236017
0.001236854
0.001236854
0.001236854
0.001236854
0.001236854
0.001225215
0.001225215
0.001225215
0.001225215
0.001225215
0.001224671
0.001224671
0.001224671
0.001224671
0.001224671
0.001236563
0.001236563
0.001236563
0.001236563
0.001236563
0.001235861
0.001235861
0.001235861
0.001235861
0.001235861
0.001235993
0.001235993
0.001235993
0.001235993
0.001235993
0.001236923
0.001236923
0.001236923
0.001236923
0.001236923
0.001225553
0.001225553
0.001225553
0.001225553
0.001225553
0.001223164
0.001223164
0.001223164
0.001223164
0.001223164
0.001235511
0.001235511
0.001235511
0.001235511
0.001235511
0.00123523
0.00123523
0.00123523
0.00123523
0.00123523
0.001235432
0.001235432
0.001235432
0.001235432
0.001235432
0.001236005
0.001236005
0.001236005
0.001236005
0.001236005
0.00122528
0.00122528
0.00122528
0.00122528
0.00122528
0.001217955
0.001217955
0.001217955
0.001217955
0.001217955
0.001230347
0.001230347
0.001230347
0.001230347
0.001230347
0.001231555
0.001231555
0.001231555
0.001231555
0.001231555
0.001235106
0.001235106
0.001235106
0.001235106
0.001235106
0.001232833
0.001232833
0.001232833
0.001232833
0.001232833
0.00122366
0.00122366
0.00122366
0.00122366
0.00122366
0.001213186
0.001213186
0.001213186
0.001213186
0.001213186
0.001217375
0.001217375
0.001217375
0.001217375
0.001217375
0.001225929
0.001225929
0.001225929
0.001225929
0.001225929
0.00123456
0.00123456
0.00123456
0.00123456
0.00123456
0.001232032
0.001232032
0.001232032
0.001232032
0.001232032
0.001224545
0.001224545
0.001224545
0.001224545
0.001224545
0.001225116
0.001225116
0.001225116
0.001225116
0.001225116
0.001217238
0.001217238
0.001217238
0.001217238
0.001217238
0.001223571
0.001223571
0.001223571
0.001223571
0.001223571
0.00123324
0.00123324
0.00123324
0.00123324
0.00123324
0.001229171
0.001229171
0.001229171
0.001229171
0.001229171
0.001227881
0.001227881
0.001227881
0.001227881
0.001227881
0.001231303
0.001231303
0.001231303
0.001231303
0.001231303
0.001220145
0.001220145
0.001220145
0.001220145
0.001220145
0.001222882
0.001222882
0.001222882
0.001222882
0.001222882
0.00123329
0.00123329
0.00123329
0.00123329
0.00123329
0.001228639
0.001228639
0.001228639
0.001228639
0.001228639
0.001228175
0.001228175
0.001228175
0.001228175
0.001228175
0.001232404
0.001232404
0.001232404
0.001232404
0.001232404
0.001221473
0.001221473
0.001221473
0.001221473
0.001221473
0.001222255
0.001222255
0.001222255
0.001222255
0.001222255
0.001232887
0.001232887
0.001232887
0.001232887
0.001232887
0.001228347
0.001228347
0.001228347
0.001228347
0.001228347
0.001228323
0.001228323
0.001228323
0.001228323
0.001228323
0.001232873
0.001232873
0.001232873
0.001232873
0.001232873
0.001222234
0.001222234
0.001222234
0.001222234
0.001222234
0.001221499
0.001221499
0.001221499
0.001221499
0.001221499
0.001232429
0.001232429
0.001232429
0.001232429
0.001232429
0.00122819
0.00122819
0.00122819
0.00122819
0.00122819
0.00122864
0.00122864
0.00122864
0.00122864
0.00122864
0.001233286
0.001233286
0.001233286
0.001233286
0.001233286
0.001222883
0.001222883
0.001222883
0.001222883
0.001222883
0.001220146
0.001220146
0.001220146
0.001220146
0.001220146
0.001231306
0.001231306
0.001231306
0.001231306
0.001231306
0.001227871
0.001227871
0.001227871
0.001227871
0.001227871
0.001229179
0.001229179
0.001229179
0.001229179
0.001229179
0.001233246
0.001233246
0.001233246
0.001233246
0.001233246
0.001223575
0.001223575
0.001223575
0.001223575
0.001223575
0.001217249
0.001217249
0.001217249
0.001217249
0.001217249
0.001225146
0.001225146
0.001225146
0.001225146
0.001225146
0.00122455
0.00122455
0.00122455
0.00122455
0.00122455
0.001232012
0.001232012
0.001232012
0.001232012
0.001232012
0.001234563
0.001234563
0.001234563
0.001234563
0.001234563
0.001225932
0.001225932
0.001225932
0.001225932
0.001225932
0.001217381
0.001217381
0.001217381
0.001217381
0.001217381
0.001216973
0.001216973
0.001216973
0.001216973
0.001216973
0.001223724
0.001223724
0.001223724
0.001223724
0.001223724
0.001232388
0.001232388
0.001232388
0.001232388
0.001232388
0.001228738
0.001228738
0.001228738
0.001228738
0.001228738
0.001219461
0.001219461
0.001219461
0.001219461
0.001219461
0.001220472
0.001220472
0.001220472
0.001220472
0.001220472
0.001213709
0.001213709
0.001213709
0.001213709
0.001213709
0.001220246
0.001220246
0.001220246
0.001220246
0.001220246
0.001229337
0.001229337
0.001229337
0.001229337
0.001229337
0.001224081
0.001224081
0.001224081
0.001224081
0.001224081
0.001222459
0.001222459
0.001222459
0.001222459
0.001222459
0.001226774
0.001226774
0.001226774
0.001226774
0.001226774
0.001216828
0.001216828
0.001216828
0.001216828
0.001216828
0.001219514
0.001219514
0.001219514
0.001219514
0.001219514
0.001229082
0.001229082
0.001229082
0.001229082
0.001229082
0.001223334
0.001223334
0.001223334
0.001223334
0.001223334
0.001222903
0.001222903
0.001222903
0.001222903
0.001222903
0.001228119
0.001228119
0.001228119
0.001228119
0.001228119
0.001218235
0.001218235
0.001218235
0.001218235
0.001218235
0.001219013
0.001219013
0.001219013
0.001219013
0.001219013
0.001228704
0.001228704
0.001228704
0.001228704
0.001228704
0.001223159
0.001223159
0.001223159
0.001223159
0.001223159
0.001223139
0.001223139
0.001223139
0.001223139
0.001223139
0.00122869
0.00122869
0.00122869
0.00122869
0.00122869
0.001218991
0.001218991
0.001218991
0.001218991
0.001218991
0.001218261
0.001218261
0.001218261
0.001218261
0.001218261
0.001228193
0.001228193
0.001228193
0.001228193
0.001228193
0.001222964
0.001222964
0.001222964
0.001222964
0.001222964
0.001223344
0.001223344
0.001223344
0.001223344
0.001223344
0.001229084
0.001229084
0.001229084
0.001229084
0.001229084
0.001219518
0.001219518
0.001219518
0.001219518
0.001219518
0.00121689
0.00121689
0.00121689
0.00121689
0.00121689
0.001226839
0.001226839
0.001226839
0.001226839
0.001226839
0.001222435
0.001222435
0.001222435
0.001222435
0.001222435
0.00122407
0.00122407
0.00122407
0.00122407
0.00122407
0.001229321
0.001229321
0.001229321
0.001229321
0.001229321
0.001220239
0.001220239
0.001220239
0.001220239
0.001220239
0.00121371
0.00121371
0.00121371
0.00121371
0.00121371
0.001220528
0.001220528
0.001220528
0.001220528
0.001220528
0.001219484
0.001219484
0.001219484
0.001219484
0.001219484
0.001228742
0.001228742
0.001228742
0.001228742
0.001228742
0.001232346
0.001232346
0.001232346
0.001232346
0.001232346
0.001223693
0.001223693
0.001223693
0.001223693
0.001223693
0.001217019
0.001217019
0.001217019
0.001217019
0.001217019
0.001213625
0.001213625
0.001213625
0.001213625
0.001213625
0.001220948
0.001220948
0.001220948
0.001220948
0.001220948
0.001228923
0.001228923
0.001228923
0.001228923
0.001228923
0.001225045
0.001225045
0.001225045
0.001225045
0.001225045
0.001215656
0.001215656
0.001215656
0.001215656
0.001215656
0.001216038
0.001216038
0.001216038
0.001216038
0.001216038
0.001211853
0.001211853
0.001211853
0.001211853
0.001211853
0.001217714
0.001217714
0.001217714
0.001217714
0.001217714
0.001225497
0.001225497
0.001225497
0.001225497
0.001225497
0.001220102
0.001220102
0.001220102
0.001220102
0.001220102
0.001218186
0.001218186
0.001218186
0.001218186
0.001218186
0.001221964
0.001221964
0.001221964
0.001221964
0.001221964
0.001214713
0.001214713
0.001214713
0.001214713
0.001214713
0.001216755
0.001216755
0.001216755
0.001216755
0.001216755
0.001224726
0.001224726
0.001224726
0.001224726
0.001224726
0.001219193
0.001219193
0.001219193
0.001219193
0.001219193
0.001218693
0.001218693
0.001218693
0.001218693
0.001218693
0.001223429
0.001223429
0.001223429
0.001223429
0.001223429
0.001215802
0.001215802
0.001215802
0.001215802
0.001215802
0.001216346
0.001216346
0.001216346
0.001216346
0.001216346
0.001224036
0.001224036
0.001224036
0.001224036
0.001224036
0.00121886
0.00121886
0.00121886
0.00121886
0.00121886
0.001218843
0.001218843
0.001218843
0.001218843
0.001218843
0.001224019
0.001224019
0.001224019
0.001224019
0.001224019
0.001216409
0.001216409
0.001216409
0.001216409
0.001216409
0.001215848
0.001215848
0.001215848
0.001215848
0.001215848
0.001223477
0.001223477
0.001223477
0.001223477
0.001223477
0.00121873
0.00121873
0.00121873
0.00121873
0.00121873
0.00121922
0.00121922
0.00121922
0.00121922
0.00121922
0.001224781
0.001224781
0.001224781
0.001224781
0.001224781
0.001216797
0.001216797
0.001216797
0.001216797
0.001216797
0.001214762
0.001214762
0.001214762
0.001214762
0.001214762
0.001222016
0.001222016
0.001222016
0.001222016
0.001222016
0.001218225
0.001218225
0.001218225
0.001218225
0.001218225
0.001220146
0.001220146
0.001220146
0.001220146
0.001220146
0.001225519
0.001225519
0.001225519
0.001225519
0.001225519
0.001217734
0.001217734
0.001217734
0.001217734
0.001217734
0.001211877
0.001211877
0.001211877
0.001211877
0.001211877
0.001216088
0.001216088
0.001216088
0.001216088
0.001216088
0.001215653
0.001215653
0.001215653
0.001215653
0.001215653
0.001225073
0.001225073
0.001225073
0.001225073
0.001225073
0.001228963
0.001228963
0.001228963
0.001228963
0.001228963
0.001220999
0.001220999
0.001220999
0.001220999
0.001220999
0.00121368
0.00121368
0.00121368
0.00121368
0.00121368
0.001211025
0.001211025
0.001211025
0.001211025
0.001211025
0.001218533
0.001218533
0.001218533
0.001218533
0.001218533
0.001225563
0.001225563
0.001225563
0.001225563
0.001225563
0.001221963
0.001221963
0.001221963
0.001221963
0.001221963
0.001212661
0.001212661
0.001212661
0.001212661
0.001212661
0.001212737
0.001212737
0.001212737
0.001212737
0.001212737
0.00120921
0.00120921
0.00120921
0.00120921
0.00120921
0.001215284
0.001215284
0.001215284
0.001215284
0.001215284
0.00122223
0.00122223
0.00122223
0.00122223
0.00122223
0.001216867
0.001216867
0.001216867
0.001216867
0.001216867
0.001214404
0.001214404
0.001214404
0.001214404
0.001214404
0.001218289
0.001218289
0.001218289
0.001218289
0.001218289
0.00121186
0.00121186
0.00121186
0.00121186
0.00121186
0.001213921
0.001213921
0.001213921
0.001213921
0.001213921
0.001221127
0.001221127
0.001221127
0.001221127
0.001221127
0.001215521
0.001215521
0.001215521
0.001215521
0.001215521
0.001214962
0.001214962
0.001214962
0.001214962
0.001214962
0.001219694
0.001219694
0.001219694
0.001219694
0.001219694
0.001212895
0.001212895
0.001212895
0.001212895
0.001212895
0.001213518
0.001213518
0.001213518
0.001213518
0.001213518
0.001220382
0.001220382
0.001220382
0.001220382
0.001220382
0.001215192
0.001215192
0.001215192
0.001215192
0.001215192
0.001215177
0.001215177
0.001215177
0.001215177
0.001215177
0.001220368
0.001220368
0.001220368
0.001220368
0.001220368
0.001213494
0.001213494
0.001213494
0.001213494
0.001213494
0.001212906
0.001212906
0.001212906
0.001212906
0.001212906
0.001219711
0.001219711
0.001219711
0.001219711
0.001219711
0.00121497
0.00121497
0.00121497
0.00121497
0.00121497
0.001215519
0.001215519
0.001215519
0.001215519
0.001215519
0.001221036
0.001221036
0.001221036
0.001221036
0.001221036
0.001213982
0.001213982
0.001213982
0.001213982
0.001213982
0.001211928
0.001211928
0.001211928
0.001211928
0.001211928
0.001218361
0.001218361
0.001218361
0.001218361
0.001218361
0.001214466
0.001214466
0.001214466
0.001214466
0.001214466
0.001216725
0.001216725
0.001216725
0.001216725
0.001216725
0.001222086
0.001222086
0.001222086
0.001222086
0.001222086
0.001215142
0.001215142
0.001215142
0.001215142
0.001215142
0.00120907
0.00120907
0.00120907
0.00120907
0.00120907
0.001212625
0.001212625
0.001212625
0.001212625
0.001212625
0.001212538
0.001212538
0.001212538
0.001212538
0.001212538
0.001221616
0.001221616
0.001221616
0.001221616
0.001221616
0.001225224
0.001225224
0.001225224
0.001225224
0.001225224
0.001218206
0.001218206
0.001218206
0.001218206
0.001218206
0.001210701
0.001210701
0.001210701
0.001210701
0.001210701
0.001208174
0.001208174
0.001208174
0.001208174
0.001208174
0.00121581
0.00121581
0.00121581
0.00121581
0.00121581
0.001221758
0.001221758
0.001221758
0.001221758
0.001221758
0.001218731
0.001218731
0.001218731
0.001218731
0.001218731
0.001209747
0.001209747
0.001209747
0.001209747
0.001209747
0.001209308
0.001209308
0.001209308
0.001209308
0.001209308
0.001206347
0.001206347
0.001206347
0.001206347
0.001206347
0.001212661
0.001212661
0.001212661
0.001212661
0.001212661
0.001218695
0.001218695
0.001218695
0.001218695
0.001218695
0.001213614
0.001213614
0.001213614
0.001213614
0.001213614
0.00121109
0.00121109
0.00121109
0.00121109
0.00121109
0.001215032
0.001215032
0.001215032
0.001215032
0.001215032
0.001209092
0.001209092
0.001209092
0.001209092
0.001209092
0.001211393
0.001211393
0.001211393
0.001211393
0.001211393
0.001217759
0.001217759
0.001217759
0.001217759
0.001217759
0.001212429
0.001212429
0.001212429
0.001212429
0.001212429
0.001211997
0.001211997
0.001211997
0.001211997
0.001211997
0.001216644
0.001216644
0.001216644
0.001216644
0.001216644
0.001210501
0.001210501
0.001210501
0.001210501
0.001210501
0.001211126
0.001211126
0.001211126
0.001211126
0.001211126
0.001217321
0.001217321
0.001217321
0.001217321
0.001217321
0.001212248
0.001212248
0.001212248
0.001212248
0.001212248
0.001212235
0.001212235
0.001212235
0.001212235
0.001212235
0.001217296
0.001217296
0.001217296
0.001217296
0.001217296
0.001211104
0.001211104
0.001211104
0.001211104
0.001211104
0.0012105
0.0012105
0.0012105
0.0012105
0.0012105
0.001216455
0.001216455
0.001216455
0.001216455
0.001216455
0.001211802
0.001211802
0.001211802
0.001211802
0.001211802
0.00121241
0.00121241
0.00121241
0.00121241
0.00121241
0.001217727
0.001217727
0.001217727
0.001217727
0.001217727
0.001211369
0.001211369
0.001211369
0.001211369
0.001211369
0.001209034
0.001209034
0.001209034
0.001209034
0.001209034
0.001214981
0.001214981
0.001214981
0.001214981
0.001214981
0.001211049
0.001211049
0.001211049
0.001211049
0.001211049
0.001213581
0.001213581
0.001213581
0.001213581
0.001213581
0.001218654
0.001218654
0.001218654
0.001218654
0.001218654
0.001212625
0.001212625
0.001212625
0.001212625
0.001212625
0.001206313
0.001206313
0.001206313
0.001206313
0.001206313
0.001209312
0.001209312
0.001209312
0.001209312
0.001209312
0.001209715
0.001209715
0.001209715
0.001209715
0.001209715
0.001218689
0.001218689
0.001218689
0.001218689
0.001218689
0.001221754
0.001221754
0.001221754
0.001221754
0.001221754
0.001215817
0.001215817
0.001215817
0.001215817
0.001215817
0.001208126
0.001208126
0.001208126
0.001208126
0.001208126
0.001205708
0.001205708
0.001205708
0.001205708
0.001205708
0.001213536
0.001213536
0.001213536
0.001213536
0.001213536
0.001218917
0.001218917
0.001218917
0.001218917
0.001218917
0.001216365
0.001216365
0.001216365
0.001216365
0.001216365
0.00120785
0.00120785
0.00120785
0.00120785
0.00120785
0.001206946
0.001206946
0.001206946
0.001206946
0.001206946
0.001204233
0.001204233
0.001204233
0.001204233
0.001204233
0.001210785
0.001210785
0.001210785
0.001210785
0.001210785
0.001216139
0.001216139
0.001216139
0.001216139
0.001216139
0.001211317
0.001211317
0.001211317
0.001211317
0.001211317
0.001208598
0.001208598
0.001208598
0.001208598
0.001208598
0.001212536
0.001212536
0.001212536
0.001212536
0.001212536
0.001206603
0.001206603
0.001206603
0.001206603
0.001206603
0.001209169
0.001209169
0.001209169
0.001209169
0.001209169
0.00121497
0.00121497
0.00121497
0.00121497
0.00121497
0.001209806
0.001209806
0.001209806
0.001209806
0.001209806
0.001209141
0.001209141
0.001209141
0.001209141
0.001209141
0.001213719
0.001213719
0.001213719
0.001213719
0.001213719
0.00120783
0.00120783
0.00120783
0.00120783
0.00120783
0.001208526
0.001208526
0.001208526
0.001208526
0.001208526
0.001214365
0.001214365
0.001214365
0.001214365
0.001214365
0.001209388
0.001209388
0.001209388
0.001209388
0.001209388
0.001209377
0.001209377
0.001209377
0.001209377
0.001209377
0.001214352
0.001214352
0.001214352
0.001214352
0.001214352
0.001208518
0.001208518
0.001208518
0.001208518
0.001208518
0.001207838
0.001207838
0.001207838
0.001207838
0.001207838
0.001213736
0.001213736
0.001213736
0.001213736
0.001213736
0.001209152
0.001209152
0.001209152
0.001209152
0.001209152
0.001209803
0.001209803
0.001209803
0.001209803
0.001209803
0.001214952
0.001214952
0.001214952
0.001214952
0.001214952
0.001209161
0.001209161
0.001209161
0.001209161
0.001209161
0.0012066
0.0012066
0.0012066
0.0012066
0.0012066
0.001212546
0.001212546
0.001212546
0.001212546
0.001212546
0.001208597
0.001208597
0.001208597
0.001208597
0.001208597
0.001211319
0.001211319
0.001211319
0.001211319
0.001211319
0.001216132
0.001216132
0.001216132
0.001216132
0.001216132
0.001210786
0.001210786
0.001210786
0.001210786
0.001210786
0.001204235
0.001204235
0.001204235
0.001204235
0.001204235
0.001206967
0.001206967
0.001206967
0.001206967
0.001206967
0.001207839
0.001207839
0.001207839
0.001207839
0.001207839
0.001216347
0.001216347
0.001216347
0.001216347
0.001216347
0.001218904
0.001218904
0.001218904
0.001218904
0.001218904
0.001213534
0.001213534
0.001213534
0.001213534
0.001213534
0.001205705
0.001205705
0.001205705
0.001205705
0.001205705
0.001203391
0.001203391
0.001203391
0.001203391
0.001203391
0.001211313
0.001211313
0.001211313
0.001211313
0.001211313
0.001216019
0.001216019
0.001216019
0.001216019
0.001216019
0.00121379
0.00121379
0.00121379
0.00121379
0.00121379
0.00120579
0.00120579
0.00120579
0.00120579
0.00120579
0.001204626
0.001204626
0.001204626
0.001204626
0.001204626
0.001201719
0.001201719
0.001201719
0.001201719
0.001201719
0.001208661
0.001208661
0.001208661
0.001208661
0.001208661
0.00121342
0.00121342
0.00121342
0.00121342
0.00121342
0.001208915
0.001208915
0.001208915
0.001208915
0.001208915
0.001206059
0.001206059
0.001206059
0.001206059
0.001206059
0.001209908
0.001209908
0.001209908
0.001209908
0.001209908
0.001204335
0.001204335
0.001204335
0.001204335
0.001204335
0.001207066
0.001207066
0.001207066
0.001207066
0.001207066
0.001212549
0.001212549
0.001212549
0.001212549
0.001212549
0.001207553
0.001207553
0.001207553
0.001207553
0.001207553
0.001206869
0.001206869
0.001206869
0.001206869
0.001206869
0.001211419
0.001211419
0.001211419
0.001211419
0.001211419
0.001205796
0.001205796
0.001205796
0.001205796
0.001205796
0.001206505
0.001206505
0.001206505
0.001206505
0.001206505
0.001212213
0.001212213
0.001212213
0.001212213
0.001212213
0.001207347
0.001207347
0.001207347
0.001207347
0.001207347
0.001207338
0.001207338
0.001207338
0.001207338
0.001207338
0.001212209
0.001212209
0.001212209
0.001212209
0.001212209
0.001206506
0.001206506
0.001206506
0.001206506
0.001206506
0.001205815
0.001205815
0.001205815
0.001205815
0.001205815
0.00121164
0.00121164
0.00121164
0.00121164
0.00121164
0.001207082
0.001207082
0.001207082
0.001207082
0.001207082
0.001207565
0.001207565
0.001207565
0.001207565
0.001207565
0.001212545
0.001212545
0.001212545
0.001212545
0.001212545
0.001207072
0.001207072
0.001207072
0.001207072
0.001207072
0.001204387
0.001204387
0.001204387
0.001204387
0.001204387
0.001209975
0.001209975
0.001209975
0.001209975
0.001209975
0.001206094
0.001206094
0.001206094
0.001206094
0.001206094
0.001208952
0.001208952
0.001208952
0.001208952
0.001208952
0.001213445
0.001213445
0.001213445
0.001213445
0.001213445
0.001208693
0.001208693
0.001208693
0.001208693
0.001208693
0.001201751
0.001201751
0.001201751
0.001201751
0.001201751
0.001204663
0.001204663
0.001204663
0.001204663
0.001204663
0.001205801
0.001205801
0.001205801
0.001205801
0.001205801
0.001213795
0.001213795
0.001213795
0.001213795
0.001213795
0.001215995
0.001215995
0.001215995
0.001215995
0.001215995
0.001211299
0.001211299
0.001211299
0.001211299
0.001211299
0.001203432
0.001203432
0.001203432
0.001203432
0.001203432
0.001201313
0.001201313
0.001201313
0.001201313
0.001201313
0.001209187
0.001209187
0.001209187
0.001209187
0.001209187
0.001213617
0.001213617
0.001213617
0.001213617
0.001213617
0.001211698
0.001211698
0.001211698
0.001211698
0.001211698
0.00120441
0.00120441
0.00120441
0.00120441
0.00120441
0.001203192
0.001203192
0.001203192
0.001203192
0.001203192
0.00119999
0.00119999
0.00119999
0.00119999
0.00119999
0.001206918
0.001206918
0.001206918
0.001206918
0.001206918
0.001211412
0.001211412
0.001211412
0.001211412
0.001211412
0.001207254
0.001207254
0.001207254
0.001207254
0.001207254
0.001204292
0.001204292
0.001204292
0.001204292
0.001204292
0.001207968
0.001207968
0.001207968
0.001207968
0.001207968
0.00120254
0.00120254
0.00120254
0.00120254
0.00120254
0.001205241
0.001205241
0.001205241
0.001205241
0.001205241
0.001210466
0.001210466
0.001210466
0.001210466
0.001210466
0.001205655
0.001205655
0.001205655
0.001205655
0.001205655
0.001204935
0.001204935
0.001204935
0.001204935
0.001204935
0.001209344
0.001209344
0.001209344
0.001209344
0.001209344
0.001203601
0.001203601
0.001203601
0.001203601
0.001203601
0.001204255
0.001204255
0.001204255
0.001204255
0.001204255
0.001209991
0.001209991
0.001209991
0.001209991
0.001209991
0.001205234
0.001205234
0.001205234
0.001205234
0.001205234
0.001205226
0.001205226
0.001205226
0.001205226
0.001205226
0.001209976
0.001209976
0.001209976
0.001209976
0.001209976
0.001204253
0.001204253
0.001204253
0.001204253
0.001204253
0.001203611
0.001203611
0.001203611
0.001203611
0.001203611
0.001209363
0.001209363
0.001209363
0.001209363
0.001209363
0.001204943
0.001204943
0.001204943
0.001204943
0.001204943
0.001205653
0.001205653
0.001205653
0.001205653
0.001205653
0.001210524
0.001210524
0.001210524
0.001210524
0.001210524
0.001205161
0.001205161
0.001205161
0.001205161
0.001205161
0.001202471
0.001202471
0.001202471
0.001202471
0.001202471
0.001207908
0.001207908
0.001207908
0.001207908
0.001207908
0.001204224
0.001204224
0.001204224
0.001204224
0.001204224
0.001207399
0.001207399
0.001207399
0.001207399
0.001207399
0.001211535
0.001211535
0.001211535
0.001211535
0.001211535
0.001207049
0.001207049
0.001207049
0.001207049
0.001207049
0.00120013
0.00120013
0.00120013
0.00120013
0.00120013
0.001203342
0.001203342
0.001203342
0.001203342
0.001203342
0.001204519
0.001204519
0.001204519
0.001204519
0.001204519
0.001212007
0.001212007
0.001212007
0.001212007
0.001212007
0.001213925
0.001213925
0.001213925
0.001213925
0.001213925
0.001209504
0.001209504
0.001209504
0.001209504
0.001209504
0.001201628
0.001201628
0.001201628
0.001201628
0.001201628
0.001199423
0.001199423
0.001199423
0.001199423
0.001199423
0.001207197
0.001207197
0.001207197
0.001207197
0.001207197
0.001211448
0.001211448
0.001211448
0.001211448
0.001211448
0.001209783
0.001209783
0.001209783
0.001209783
0.001209783
0.001202765
0.001202765
0.001202765
0.001202765
0.001202765
0.00120155
0.00120155
0.00120155
0.00120155
0.00120155
0.001198118
0.001198118
0.001198118
0.001198118
0.001198118
0.001204652
0.001204652
0.001204652
0.001204652
0.001204652
0.001209073
0.001209073
0.001209073
0.001209073
0.001209073
0.001205328
0.001205328
0.001205328
0.001205328
0.001205328
0.001201986
0.001201986
0.001201986
0.001201986
0.001201986
0.001205499
0.001205499
0.001205499
0.001205499
0.001205499
0.001200055
0.001200055
0.001200055
0.001200055
0.001200055
0.001202749
0.001202749
0.001202749
0.001202749
0.001202749
0.001208133
0.001208133
0.001208133
0.001208133
0.001208133
0.001203519
0.001203519
0.001203519
0.001203519
0.001203519
0.0012027
0.0012027
0.0012027
0.0012027
0.0012027
0.00120689
0.00120689
0.00120689
0.00120689
0.00120689
0.001201262
0.001201262
0.001201262
0.001201262
0.001201262
0.00120188
0.00120188
0.00120188
0.00120188
0.00120188
0.001207737
0.001207737
0.001207737
0.001207737
0.001207737
0.00120309
0.00120309
0.00120309
0.00120309
0.00120309
0.001203086
0.001203086
0.001203086
0.001203086
0.001203086
0.001207721
0.001207721
0.001207721
0.001207721
0.001207721
0.001201887
0.001201887
0.001201887
0.001201887
0.001201887
0.001201252
0.001201252
0.001201252
0.001201252
0.001201252
0.001206884
0.001206884
0.001206884
0.001206884
0.001206884
0.001202683
0.001202683
0.001202683
0.001202683
0.001202683
0.001203492
0.001203492
0.001203492
0.001203492
0.001203492
0.001208057
0.001208057
0.001208057
0.001208057
0.001208057
0.001202943
0.001202943
0.001202943
0.001202943
0.001202943
0.001200257
0.001200257
0.001200257
0.001200257
0.001200257
0.001205718
0.001205718
0.001205718
0.001205718
0.001205718
0.001202194
0.001202194
0.001202194
0.001202194
0.001202194
0.001205188
0.001205188
0.001205188
0.001205188
0.001205188
0.001208881
0.001208881
0.001208881
0.001208881
0.001208881
0.001204466
0.001204466
0.001204466
0.001204466
0.001204466
0.001197942
0.001197942
0.001197942
0.001197942
0.001197942
0.001201383
0.001201383
0.001201383
0.001201383
0.001201383
0.001202512
0.001202512
0.001202512
0.001202512
0.001202512
0.001209246
0.001209246
0.001209246
0.001209246
0.001209246
0.001210905
0.001210905
0.001210905
0.001210905
0.001210905
0.001206664
0.001206664
0.001206664
0.001206664
0.001206664
0.001198896
0.001198896
0.001198896
0.001198896
0.001198896
0.001197039
0.001197039
0.001197039
0.001197039
0.001197039
0.001204582
0.001204582
0.001204582
0.001204582
0.001204582
0.001208718
0.001208718
0.001208718
0.001208718
0.001208718
0.001207388
0.001207388
0.001207388
0.001207388
0.001207388
0.001200864
0.001200864
0.001200864
0.001200864
0.001200864
0.001199547
0.001199547
0.001199547
0.001199547
0.001199547