/*--------------------------------*- C++ -*----------------------------------*\
| =========                 |                                                 |
| \\      /  F ield         | OpenFOAM: The Open Source CFD Toolbox           |
|  \\    /   O peration     | Version:  4.0                                   |
|   \\  /    A nd           | Web:      www.OpenFOAM.org                      |
|    \\/     M anipulation  |                                                 |
\*---------------------------------------------------------------------------*/
FoamFile
{
    version     2.0;
    format      ascii;
    class       volScalarField;
    location    "120/electrolyte";
    object      etaOhmic;
}
// * * * * * * * * * * * * * * * * * * * * * * * * * * * * * * * * * * * * * //

dimensions      [1 2 -3 0 0 -1 0];

internalField   nonuniform List<scalar> 
4840
(
0.009745903
0.009745903
0.009745903
0.009745903
0.009745903
0.01003955
0.01003955
0.01003955
0.01003955
0.01003955
0.01037111
0.01037111
0.01037111
0.01037111
0.01037111
0.01044385
0.01044385
0.01044385
0.01044385
0.01044385
0.01045487
0.01045487
0.01045487
0.01045487
0.01045487
0.01040856
0.01040856
0.01040856
0.01040856
0.01040856
0.0101633
0.0101633
0.0101633
0.0101633
0.0101633
0.01017053
0.01017053
0.01017053
0.01017053
0.01017053
0.01040885
0.01040885
0.01040885
0.01040885
0.01040885
0.01044444
0.01044444
0.01044444
0.01044444
0.01044444
0.01041065
0.01041065
0.01041065
0.01041065
0.01041065
0.01038107
0.01038107
0.01038107
0.01038107
0.01038107
0.01013935
0.01013935
0.01013935
0.01013935
0.01013935
0.0101351
0.0101351
0.0101351
0.0101351
0.0101351
0.01037335
0.01037335
0.01037335
0.01037335
0.01037335
0.01039632
0.01039632
0.01039632
0.01039632
0.01039632
0.01039807
0.01039807
0.01039807
0.01039807
0.01039807
0.01036864
0.01036864
0.01036864
0.01036864
0.01036864
0.01012791
0.01012791
0.01012791
0.01012791
0.01012791
0.0101225
0.0101225
0.0101225
0.0101225
0.0101225
0.01036008
0.01036008
0.01036008
0.01036008
0.01036008
0.01039549
0.01039549
0.01039549
0.01039549
0.01039549
0.01039745
0.01039745
0.01039745
0.01039745
0.01039745
0.01036814
0.01036814
0.01036814
0.01036814
0.01036814
0.01012788
0.01012788
0.01012788
0.01012788
0.01012788
0.01013098
0.01013098
0.01013098
0.01013098
0.01013098
0.01036976
0.01036976
0.01036976
0.01036976
0.01036976
0.01040531
0.01040531
0.01040531
0.01040531
0.01040531
0.01040746
0.01040746
0.01040746
0.01040746
0.01040746
0.01037816
0.01037816
0.01037816
0.01037816
0.01037816
0.01016331
0.01016331
0.01016331
0.01016331
0.01016331
0.01015537
0.01015537
0.01015537
0.01015537
0.01015537
0.01039544
0.01039544
0.01039544
0.01039544
0.01039544
0.01043133
0.01043133
0.01043133
0.01043133
0.01043133
0.01043417
0.01043417
0.01043417
0.01043417
0.01043417
0.01040476
0.01040476
0.01040476
0.01040476
0.01040476
0.01016582
0.01016582
0.01016582
0.01016582
0.01016582
0.01014804
0.01014804
0.01014804
0.01014804
0.01014804
0.01039397
0.01039397
0.01039397
0.01039397
0.01039397
0.01043189
0.01043189
0.01043189
0.01043189
0.01043189
0.01041295
0.01041295
0.01041295
0.01041295
0.01041295
0.01037284
0.01037284
0.01037284
0.01037284
0.01037284
0.01007801
0.01007801
0.01007801
0.01007801
0.01007801
0.009814138
0.009814138
0.009814138
0.009814138
0.009814138
0.009845793
0.009845793
0.009845793
0.009845793
0.009845793
0.01001883
0.01001883
0.01001883
0.01001883
0.01001883
0.01025843
0.01025843
0.01025843
0.01025843
0.01025843
0.01031748
0.01031748
0.01031748
0.01031748
0.01031748
0.01032384
0.01032384
0.01032384
0.01032384
0.01032384
0.01028961
0.01028961
0.01028961
0.01028961
0.01028961
0.0100777
0.0100777
0.0100777
0.0100777
0.0100777
0.0100828
0.0100828
0.0100828
0.0100828
0.0100828
0.01028334
0.01028334
0.01028334
0.01028334
0.01028334
0.01032583
0.01032583
0.01032583
0.01032583
0.01032583
0.01032955
0.01032955
0.01032955
0.01032955
0.01032955
0.01030432
0.01030432
0.01030432
0.01030432
0.01030432
0.01009539
0.01009539
0.01009539
0.01009539
0.01009539
0.01008937
0.01008937
0.01008937
0.01008937
0.01008937
0.0102919
0.0102919
0.0102919
0.0102919
0.0102919
0.01033517
0.01033517
0.01033517
0.01033517
0.01033517
0.01036506
0.01036506
0.01036506
0.01036506
0.01036506
0.01033
0.01033
0.01033
0.01033
0.01033
0.01012138
0.01012138
0.01012138
0.01012138
0.01012138
0.01011359
0.01011359
0.01011359
0.01011359
0.01011359
0.01031701
0.01031701
0.01031701
0.01031701
0.01031701
0.01036043
0.01036043
0.01036043
0.01036043
0.01036043
0.01036478
0.01036478
0.01036478
0.01036478
0.01036478
0.01033004
0.01033004
0.01033004
0.01033004
0.01033004
0.01012208
0.01012208
0.01012208
0.01012208
0.01012208
0.01011253
0.01011253
0.01011253
0.01011253
0.01011253
0.01029078
0.01029078
0.01029078
0.01029078
0.01029078
0.01033453
0.01033453
0.01033453
0.01033453
0.01033453
0.01033911
0.01033911
0.01033911
0.01033911
0.01033911
0.01030461
0.01030461
0.01030461
0.01030461
0.01030461
0.01009754
0.01009754
0.01009754
0.01009754
0.01009754
0.01007627
0.01007627
0.01007627
0.01007627
0.01007627
0.01028046
0.01028046
0.01028046
0.01028046
0.01028046
0.01032451
0.01032451
0.01032451
0.01032451
0.01032451
0.01032977
0.01032977
0.01032977
0.01032977
0.01032977
0.01029633
0.01029633
0.01029633
0.01029633
0.01029633
0.01009206
0.01009206
0.01009206
0.01009206
0.01009206
0.01007051
0.01007051
0.01007051
0.01007051
0.01007051
0.0102792
0.0102792
0.0102792
0.0102792
0.0102792
0.01032584
0.01032584
0.01032584
0.01032584
0.01032584
0.01033561
0.01033561
0.01033561
0.01033561
0.01033561
0.01030789
0.01030789
0.01030789
0.01030789
0.01030789
0.01007575
0.01007575
0.01007575
0.01007575
0.01007575
0.009867765
0.009867765
0.009867765
0.009867765
0.009867765
0.009798511
0.009798511
0.009798511
0.009798511
0.009798511
0.009953459
0.009953459
0.009953459
0.009953459
0.009953459
0.0102207
0.0102207
0.0102207
0.0102207
0.0102207
0.01029443
0.01029443
0.01029443
0.01029443
0.01029443
0.01030444
0.01030444
0.01030444
0.01030444
0.01030444
0.01026102
0.01026102
0.01026102
0.01026102
0.01026102
0.01005753
0.01005753
0.01005753
0.01005753
0.01005753
0.01005786
0.01005786
0.01005786
0.01005786
0.01005786
0.01025097
0.01025097
0.01025097
0.01025097
0.01025097
0.01030598
0.01030598
0.01030598
0.01030598
0.01030598
0.01031203
0.01031203
0.01031203
0.01031203
0.01031203
0.01026675
0.01026675
0.01026675
0.01026675
0.01026675
0.01003855
0.01003855
0.01003855
0.01003855
0.01003855
0.01003034
0.01003034
0.01003034
0.01003034
0.01003034
0.0102238
0.0102238
0.0102238
0.0102238
0.0102238
0.01027941
0.01027941
0.01027941
0.01027941
0.01027941
0.01028581
0.01028581
0.01028581
0.01028581
0.01028581
0.01023107
0.01023107
0.01023107
0.01023107
0.01023107
0.01002945
0.01002945
0.01002945
0.01002945
0.01002945
0.01001893
0.01001893
0.01001893
0.01001893
0.01001893
0.01021281
0.01021281
0.01021281
0.01021281
0.01021281
0.01026875
0.01026875
0.01026875
0.01026875
0.01026875
0.01027562
0.01027562
0.01027562
0.01027562
0.01027562
0.01023143
0.01023143
0.01023143
0.01023143
0.01023143
0.01003048
0.01003048
0.01003048
0.01003048
0.01003048
0.01001779
0.01001779
0.01001779
0.01001779
0.01001779
0.01021244
0.01021244
0.01021244
0.01021244
0.01021244
0.0102789
0.0102789
0.0102789
0.0102789
0.0102789
0.01028608
0.01028608
0.01028608
0.01028608
0.01028608
0.01024223
0.01024223
0.01024223
0.01024223
0.01024223
0.01004174
0.01004174
0.01004174
0.01004174
0.01004174
0.01002675
0.01002675
0.01002675
0.01002675
0.01002675
0.01024777
0.01024777
0.01024777
0.01024777
0.01024777
0.01030478
0.01030478
0.01030478
0.01030478
0.01030478
0.01031272
0.01031272
0.01031272
0.01031272
0.01031272
0.01026987
0.01026987
0.01026987
0.01026987
0.01026987
0.01007053
0.01007053
0.01007053
0.01007053
0.01007053
0.01004794
0.01004794
0.01004794
0.01004794
0.01004794
0.01024616
0.01024616
0.01024616
0.01024616
0.01024616
0.01030573
0.01030573
0.01030573
0.01030573
0.01030573
0.01031811
0.01031811
0.01031811
0.01031811
0.01031811
0.01026977
0.01026977
0.01026977
0.01026977
0.01026977
0.01000564
0.01000564
0.01000564
0.01000564
0.01000564
0.009815719
0.009815719
0.009815719
0.009815719
0.009815719
0.009729204
0.009729204
0.009729204
0.009729204
0.009729204
0.009858422
0.009858422
0.009858422
0.009858422
0.009858422
0.01011735
0.01011735
0.01011735
0.01011735
0.01011735
0.01020157
0.01020157
0.01020157
0.01020157
0.01020157
0.01021715
0.01021715
0.01021715
0.01021715
0.01021715
0.01016216
0.01016216
0.01016216
0.01016216
0.01016216
0.00996542
0.00996542
0.00996542
0.00996542
0.00996542
0.009959784
0.009959784
0.009959784
0.009959784
0.009959784
0.01015137
0.01015137
0.01015137
0.01015137
0.01015137
0.01022005
0.01022005
0.01022005
0.01022005
0.01022005
0.01022777
0.01022777
0.01022777
0.01022777
0.01022777
0.01016979
0.01016979
0.01016979
0.01016979
0.01016979
0.009971096
0.009971096
0.009971096
0.009971096
0.009971096
0.009969305
0.009969305
0.009969305
0.009969305
0.009969305
0.01015971
0.01015971
0.01015971
0.01015971
0.01015971
0.01022938
0.01022938
0.01022938
0.01022938
0.01022938
0.01023773
0.01023773
0.01023773
0.01023773
0.01023773
0.01018055
0.01018055
0.01018055
0.01018055
0.01018055
0.01000678
0.01000678
0.01000678
0.01000678
0.01000678
0.009993402
0.009993402
0.009993402
0.009993402
0.009993402
0.01018395
0.01018395
0.01018395
0.01018395
0.01018395
0.01025449
0.01025449
0.01025449
0.01025449
0.01025449
0.01026353
0.01026353
0.01026353
0.01026353
0.01026353
0.01020732
0.01020732
0.01020732
0.01020732
0.01020732
0.0100075
0.0100075
0.0100075
0.0100075
0.0100075
0.009992684
0.009992684
0.009992684
0.009992684
0.009992684
0.01018294
0.01018294
0.01018294
0.01018294
0.01018294
0.0102544
0.0102544
0.0102544
0.0102544
0.0102544
0.0102383
0.0102383
0.0102383
0.0102383
0.0102383
0.01018288
0.01018288
0.01018288
0.01018288
0.01018288
0.009983268
0.009983268
0.009983268
0.009983268
0.009983268
0.009966945
0.009966945
0.009966945
0.009966945
0.009966945
0.01015652
0.01015652
0.01015652
0.01015652
0.01015652
0.01021865
0.01021865
0.01021865
0.01021865
0.01021865
0.0102292
0.0102292
0.0102292
0.0102292
0.0102292
0.01017523
0.01017523
0.01017523
0.01017523
0.01017523
0.009975397
0.009975397
0.009975397
0.009975397
0.009975397
0.009954328
0.009954328
0.009954328
0.009954328
0.009954328
0.01014448
0.01014448
0.01014448
0.01014448
0.01014448
0.01021914
0.01021914
0.01021914
0.01021914
0.01021914
0.01023212
0.01023212
0.01023212
0.01023212
0.01023212
0.01016777
0.01016777
0.01016777
0.01016777
0.01016777
0.009908813
0.009908813
0.009908813
0.009908813
0.009908813
0.009746875
0.009746875
0.009746875
0.009746875
0.009746875
0.009664102
0.009664102
0.009664102
0.009664102
0.009664102
0.009779622
0.009779622
0.009779622
0.009779622
0.009779622
0.01005144
0.01005144
0.01005144
0.01005144
0.01005144
0.01016391
0.01016391
0.01016391
0.01016391
0.01016391
0.01021078
0.01021078
0.01021078
0.01021078
0.01021078
0.01014993
0.01014993
0.01014993
0.01014993
0.01014993
0.009951143
0.009951143
0.009951143
0.009951143
0.009951143
0.009941736
0.009941736
0.009941736
0.009941736
0.009941736
0.01013676
0.01013676
0.01013676
0.01013676
0.01013676
0.01021575
0.01021575
0.01021575
0.01021575
0.01021575
0.01022475
0.01022475
0.01022475
0.01022475
0.01022475
0.0101588
0.0101588
0.0101588
0.0101588
0.0101588
0.009957041
0.009957041
0.009957041
0.009957041
0.009957041
0.00994292
0.00994292
0.00994292
0.00994292
0.00994292
0.01011068
0.01011068
0.01011068
0.01011068
0.01011068
0.0101894
0.0101894
0.0101894
0.0101894
0.0101894
0.01019903
0.01019903
0.01019903
0.01019903
0.01019903
0.01013408
0.01013408
0.01013408
0.01013408
0.01013408
0.009932015
0.009932015
0.009932015
0.009932015
0.009932015
0.009907119
0.009907119
0.009907119
0.009907119
0.009907119
0.01009935
0.01009935
0.01009935
0.01009935
0.01009935
0.01017875
0.01017875
0.01017875
0.01017875
0.01017875
0.01018926
0.01018926
0.01018926
0.01018926
0.01018926
0.01012573
0.01012573
0.01012573
0.01012573
0.01012573
0.009923299
0.009923299
0.009923299
0.009923299
0.009923299
0.009907018
0.009907018
0.009907018
0.009907018
0.009907018
0.01009812
0.01009812
0.01009812
0.01009812
0.01009812
0.01017886
0.01017886
0.01017886
0.01017886
0.01017886
0.01019034
0.01019034
0.01019034
0.01019034
0.01019034
0.01013993
0.01013993
0.01013993
0.01013993
0.01013993
0.009936198
0.009936198
0.009936198
0.009936198
0.009936198
0.009918804
0.009918804
0.009918804
0.009918804
0.009918804
0.01010941
0.01010941
0.01010941
0.01010941
0.01010941
0.01019119
0.01019119
0.01019119
0.01019119
0.01019119
0.01023836
0.01023836
0.01023836
0.01023836
0.01023836
0.01017639
0.01017639
0.01017639
0.01017639
0.01017639
0.009971463
0.009971463
0.009971463
0.009971463
0.009971463
0.009950967
0.009950967
0.009950967
0.009950967
0.009950967
0.01014242
0.01014242
0.01014242
0.01014242
0.01014242
0.01024719
0.01024719
0.01024719
0.01024719
0.01024719
0.01025947
0.01025947
0.01025947
0.01025947
0.01025947
0.01017994
0.01017994
0.01017994
0.01017994
0.01017994
0.009904989
0.009904989
0.009904989
0.009904989
0.009904989
0.009741579
0.009741579
0.009741579
0.009741579
0.009741579
0.009666204
0.009666204
0.009666204
0.009666204
0.009666204
0.009772408
0.009772408
0.009772408
0.009772408
0.009772408
0.01005096
0.01005096
0.01005096
0.01005096
0.01005096
0.01018403
0.01018403
0.01018403
0.01018403
0.01018403
0.01021113
0.01021113
0.01021113
0.01021113
0.01021113
0.01012509
0.01012509
0.01012509
0.01012509
0.01012509
0.009925879
0.009925879
0.009925879
0.009925879
0.009925879
0.009914127
0.009914127
0.009914127
0.009914127
0.009914127
0.0101093
0.0101093
0.0101093
0.0101093
0.0101093
0.01019787
0.01019787
0.01019787
0.01019787
0.01019787
0.01017968
0.01017968
0.01017968
0.01017968
0.01017968
0.01010561
0.01010561
0.01010561
0.01010561
0.01010561
0.009903775
0.009903775
0.009903775
0.009903775
0.009903775
0.009888269
0.009888269
0.009888269
0.009888269
0.009888269
0.01008224
0.01008224
0.01008224
0.01008224
0.01008224
0.01015934
0.01015934
0.01015934
0.01015934
0.01015934
0.01016984
0.01016984
0.01016984
0.01016984
0.01016984
0.01009704
0.01009704
0.01009704
0.01009704
0.01009704
0.00989391
0.00989391
0.00989391
0.00989391
0.00989391
0.009877497
0.009877497
0.009877497
0.009877497
0.009877497
0.01006934
0.01006934
0.01006934
0.01006934
0.01006934
0.01015803
0.01015803
0.01015803
0.01015803
0.01015803
0.01016961
0.01016961
0.01016961
0.01016961
0.01016961
0.01009796
0.01009796
0.01009796
0.01009796
0.01009796
0.009893819
0.009893819
0.009893819
0.009893819
0.009893819
0.009884473
0.009884473
0.009884473
0.009884473
0.009884473
0.01007586
0.01007586
0.01007586
0.01007586
0.01007586
0.01016572
0.01016572
0.01016572
0.01016572
0.01016572
0.01017846
0.01017846
0.01017846
0.01017846
0.01017846
0.010108
0.010108
0.010108
0.010108
0.010108
0.009921875
0.009921875
0.009921875
0.009921875
0.009921875
0.009903523
0.009903523
0.009903523
0.009903523
0.009903523
0.01009378
0.01009378
0.01009378
0.01009378
0.01009378
0.01018514
0.01018514
0.01018514
0.01018514
0.01018514
0.01019857
0.01019857
0.01019857
0.01019857
0.01019857
0.01012753
0.01012753
0.01012753
0.01012753
0.01012753
0.009921914
0.009921914
0.009921914
0.009921914
0.009921914
0.009901784
0.009901784
0.009901784
0.009901784
0.009901784
0.01009293
0.01009293
0.01009293
0.01009293
0.01009293
0.0101842
0.0101842
0.0101842
0.0101842
0.0101842
0.01017399
0.01017399
0.01017399
0.01017399
0.01017399
0.01007707
0.01007707
0.01007707
0.01007707
0.01007707
0.009796634
0.009796634
0.009796634
0.009796634
0.009796634
0.009640536
0.009640536
0.009640536
0.009640536
0.009640536
0.009564449
0.009564449
0.009564449
0.009564449
0.009564449
0.009657619
0.009657619
0.009657619
0.009657619
0.009657619
0.009942136
0.009942136
0.009942136
0.009942136
0.009942136
0.01008827
0.01008827
0.01008827
0.01008827
0.01008827
0.01011985
0.01011985
0.01011985
0.01011985
0.01011985
0.01005
0.01005
0.01005
0.01005
0.01005
0.009849378
0.009849378
0.009849378
0.009849378
0.009849378
0.009836365
0.009836365
0.009836365
0.009836365
0.009836365
0.01003452
0.01003452
0.01003452
0.01003452
0.01003452
0.01012844
0.01012844
0.01012844
0.01012844
0.01012844
0.01013908
0.01013908
0.01013908
0.01013908
0.01013908
0.01006849
0.01006849
0.01006849
0.01006849
0.01006849
0.009863266
0.009863266
0.009863266
0.009863266
0.009863266
0.009846799
0.009846799
0.009846799
0.009846799
0.009846799
0.01004387
0.01004387
0.01004387
0.01004387
0.01004387
0.01013707
0.01013707
0.01013707
0.01013707
0.01013707
0.01016817
0.01016817
0.01016817
0.01016817
0.01016817
0.01009052
0.01009052
0.01009052
0.01009052
0.01009052
0.009883111
0.009883111
0.009883111
0.009883111
0.009883111
0.009865653
0.009865653
0.009865653
0.009865653
0.009865653
0.01006103
0.01006103
0.01006103
0.01006103
0.01006103
0.0101558
0.0101558
0.0101558
0.0101558
0.0101558
0.01016815
0.01016815
0.01016815
0.01016815
0.01016815
0.01009122
0.01009122
0.01009122
0.01009122
0.01009122
0.00988327
0.00988327
0.00988327
0.00988327
0.00988327
0.009865178
0.009865178
0.009865178
0.009865178
0.009865178
0.0100401
0.0100401
0.0100401
0.0100401
0.0100401
0.01013553
0.01013553
0.01013553
0.01013553
0.01013553
0.01014907
0.01014907
0.01014907
0.01014907
0.01014907
0.01007384
0.01007384
0.01007384
0.01007384
0.01007384
0.009864234
0.009864234
0.009864234
0.009864234
0.009864234
0.009837066
0.009837066
0.009837066
0.009837066
0.009837066
0.01002962
0.01002962
0.01002962
0.01002962
0.01002962
0.01012646
0.01012646
0.01012646
0.01012646
0.01012646
0.01014089
0.01014089
0.01014089
0.01014089
0.01014089
0.01006571
0.01006571
0.01006571
0.01006571
0.01006571
0.009856335
0.009856335
0.009856335
0.009856335
0.009856335
0.009836192
0.009836192
0.009836192
0.009836192
0.009836192
0.01002869
0.01002869
0.01002869
0.01002869
0.01002869
0.01012518
0.01012518
0.01012518
0.01012518
0.01012518
0.01013327
0.01013327
0.01013327
0.01013327
0.01013327
0.01003282
0.01003282
0.01003282
0.01003282
0.01003282
0.009744442
0.009744442
0.009744442
0.009744442
0.009744442
0.00959042
0.00959042
0.00959042
0.00959042
0.00959042
0.009517577
0.009517577
0.009517577
0.009517577
0.009517577
0.009617202
0.009617202
0.009617202
0.009617202
0.009617202
0.00992836
0.00992836
0.00992836
0.00992836
0.00992836
0.01008517
0.01008517
0.01008517
0.01008517
0.01008517
0.01012065
0.01012065
0.01012065
0.01012065
0.01012065
0.01004811
0.01004811
0.01004811
0.01004811
0.01004811
0.009844852
0.009844852
0.009844852
0.009844852
0.009844852
0.009831168
0.009831168
0.009831168
0.009831168
0.009831168
0.01003393
0.01003393
0.01003393
0.01003393
0.01003393
0.01013179
0.01013179
0.01013179
0.01013179
0.01013179
0.01014286
0.01014286
0.01014286
0.01014286
0.01014286
0.0100606
0.0100606
0.0100606
0.0100606
0.0100606
0.009831578
0.009831578
0.009831578
0.009831578
0.009831578
0.009814424
0.009814424
0.009814424
0.009814424
0.009814424
0.01001467
0.01001467
0.01001467
0.01001467
0.01001467
0.01011213
0.01011213
0.01011213
0.01011213
0.01011213
0.01012378
0.01012378
0.01012378
0.01012378
0.01012378
0.01003477
0.01003477
0.01003477
0.01003477
0.01003477
0.009823765
0.009823765
0.009823765
0.009823765
0.009823765
0.009805636
0.009805636
0.009805636
0.009805636
0.009805636
0.01000354
0.01000354
0.01000354
0.01000354
0.01000354
0.01010254
0.01010254
0.01010254
0.01010254
0.01010254
0.01011538
0.01011538
0.01011538
0.01011538
0.01011538
0.01003485
0.01003485
0.01003485
0.01003485
0.01003485
0.009823885
0.009823885
0.009823885
0.009823885
0.009823885
0.009805411
0.009805411
0.009805411
0.009805411
0.009805411
0.01000341
0.01000341
0.01000341
0.01000341
0.01000341
0.0101109
0.0101109
0.0101109
0.0101109
0.0101109
0.01012487
0.01012487
0.01012487
0.01012487
0.01012487
0.01004593
0.01004593
0.01004593
0.01004593
0.01004593
0.009832623
0.009832623
0.009832623
0.009832623
0.009832623
0.009813192
0.009813192
0.009813192
0.009813192
0.009813192
0.01002913
0.01002913
0.01002913
0.01002913
0.01002913
0.01013005
0.01013005
0.01013005
0.01013005
0.01013005
0.01014516
0.01014516
0.01014516
0.01014516
0.01014516
0.01006673
0.01006673
0.01006673
0.01006673
0.01006673
0.009852313
0.009852313
0.009852313
0.009852313
0.009852313
0.00983181
0.00983181
0.00983181
0.00983181
0.00983181
0.01002694
0.01002694
0.01002694
0.01002694
0.01002694
0.01012752
0.01012752
0.01012752
0.01012752
0.01012752
0.01013377
0.01013377
0.01013377
0.01013377
0.01013377
0.01001589
0.01001589
0.01001589
0.01001589
0.01001589
0.009700443
0.009700443
0.009700443
0.009700443
0.009700443
0.009546262
0.009546262
0.009546262
0.009546262
0.009546262
0.009476766
0.009476766
0.009476766
0.009476766
0.009476766
0.009576725
0.009576725
0.009576725
0.009576725
0.009576725
0.009875314
0.009875314
0.009875314
0.009875314
0.009875314
0.0100308
0.0100308
0.0100308
0.0100308
0.0100308
0.01006917
0.01006917
0.01006917
0.01006917
0.01006917
0.009995395
0.009995395
0.009995395
0.009995395
0.009995395
0.009790074
0.009790074
0.009790074
0.009790074
0.009790074
0.009776138
0.009776138
0.009776138
0.009776138
0.009776138
0.00998195
0.00998195
0.00998195
0.00998195
0.00998195
0.0100825
0.0100825
0.0100825
0.0100825
0.0100825
0.01009384
0.01009384
0.01009384
0.01009384
0.01009384
0.01000903
0.01000903
0.01000903
0.01000903
0.01000903
0.00979691
0.00979691
0.00979691
0.00979691
0.00979691
0.009787445
0.009787445
0.009787445
0.009787445
0.009787445
0.009991097
0.009991097
0.009991097
0.009991097
0.009991097
0.01009132
0.01009132
0.01009132
0.01009132
0.01009132
0.0101034
0.0101034
0.0101034
0.0101034
0.0101034
0.01002034
0.01002034
0.01002034
0.01002034
0.01002034
0.009824872
0.009824872
0.009824872
0.009824872
0.009824872
0.009806125
0.009806125
0.009806125
0.009806125
0.009806125
0.0100075
0.0100075
0.0100075
0.0100075
0.0100075
0.01010979
0.01010979
0.01010979
0.01010979
0.01010979
0.01012303
0.01012303
0.01012303
0.01012303
0.01012303
0.01003978
0.01003978
0.01003978
0.01003978
0.01003978
0.009824929
0.009824929
0.009824929
0.009824929
0.009824929
0.009806094
0.009806094
0.009806094
0.009806094
0.009806094
0.01000797
0.01000797
0.01000797
0.01000797
0.01000797
0.01011011
0.01011011
0.01011011
0.01011011
0.01011011
0.01010455
0.01010455
0.01010455
0.01010455
0.01010455
0.01002327
0.01002327
0.01002327
0.01002327
0.01002327
0.009806167
0.009806167
0.009806167
0.009806167
0.009806167
0.009786358
0.009786358
0.009786358
0.009786358
0.009786358
0.009985274
0.009985274
0.009985274
0.009985274
0.009985274
0.01008098
0.01008098
0.01008098
0.01008098
0.01008098
0.01009654
0.01009654
0.01009654
0.01009654
0.01009654
0.01001586
0.01001586
0.01001586
0.01001586
0.01001586
0.009798156
0.009798156
0.009798156
0.009798156
0.009798156
0.009777386
0.009777386
0.009777386
0.009777386
0.009777386
0.009974715
0.009974715
0.009974715
0.009974715
0.009974715
0.01007752
0.01007752
0.01007752
0.01007752
0.01007752
0.01008223
0.01008223
0.01008223
0.01008223
0.01008223
0.009958579
0.009958579
0.009958579
0.009958579
0.009958579
0.009655745
0.009655745
0.009655745
0.009655745
0.009655745
0.00950789
0.00950789
0.00950789
0.00950789
0.00950789
0.009441648
0.009441648
0.009441648
0.009441648
0.009441648
0.009542591
0.009542591
0.009542591
0.009542591
0.009542591
0.00984717
0.00984717
0.00984717
0.00984717
0.00984717
0.01001664
0.01001664
0.01001664
0.01001664
0.01001664
0.01007762
0.01007762
0.01007762
0.01007762
0.01007762
0.01000293
0.01000293
0.01000293
0.01000293
0.01000293
0.009794863
0.009794863
0.009794863
0.009794863
0.009794863
0.009780655
0.009780655
0.009780655
0.009780655
0.009780655
0.009989031
0.009989031
0.009989031
0.009989031
0.009989031
0.01009291
0.01009291
0.01009291
0.01009291
0.01009291
0.01010468
0.01010468
0.01010468
0.01010468
0.01010468
0.01001764
0.01001764
0.01001764
0.01001764
0.01001764
0.009802546
0.009802546
0.009802546
0.009802546
0.009802546
0.009784556
0.009784556
0.009784556
0.009784556
0.009784556
0.009971192
0.009971192
0.009971192
0.009971192
0.009971192
0.01007392
0.01007392
0.01007392
0.01007392
0.01007392
0.01008636
0.01008636
0.01008636
0.01008636
0.01008636
0.01000094
0.01000094
0.01000094
0.01000094
0.01000094
0.009783581
0.009783581
0.009783581
0.009783581
0.009783581
0.009756651
0.009756651
0.009756651
0.009756651
0.009756651
0.009960203
0.009960203
0.009960203
0.009960203
0.009960203
0.01006439
0.01006439
0.01006439
0.01006439
0.01006439
0.01007786
0.01007786
0.01007786
0.01007786
0.01007786
0.009992889
0.009992889
0.009992889
0.009992889
0.009992889
0.009776119
0.009776119
0.009776119
0.009776119
0.009776119
0.009757058
0.009757058
0.009757058
0.009757058
0.009757058
0.009960537
0.009960537
0.009960537
0.009960537
0.009960537
0.01006513
0.01006513
0.01006513
0.01006513
0.01006513
0.01007972
0.01007972
0.01007972
0.01007972
0.01007972
0.01000663
0.01000663
0.01000663
0.01000663
0.01000663
0.009786926
0.009786926
0.009786926
0.009786926
0.009786926
0.009766824
0.009766824
0.009766824
0.009766824
0.009766824
0.009968011
0.009968011
0.009968011
0.009968011
0.009968011
0.01007441
0.01007441
0.01007441
0.01007441
0.01007441
0.01011818
0.01011818
0.01011818
0.01011818
0.01011818
0.01003488
0.01003488
0.01003488
0.01003488
0.01003488
0.009814074
0.009814074
0.009814074
0.009814074
0.009814074
0.009792996
0.009792996
0.009792996
0.009792996
0.009792996
0.009993224
0.009993224
0.009993224
0.009993224
0.009993224
0.01011733
0.01011733
0.01011733
0.01011733
0.01011733
0.01012059
0.01012059
0.01012059
0.01012059
0.01012059
0.009991445
0.009991445
0.009991445
0.009991445
0.009991445
0.00968077
0.00968077
0.00968077
0.00968077
0.00968077
0.009521915
0.009521915
0.009521915
0.009521915
0.009521915
0.009466602
0.009466602
0.009466602
0.009466602
0.009466602
0.009569344
0.009569344
0.009569344
0.009569344
0.009569344
0.009880503
0.009880503
0.009880503
0.009880503
0.009880503
0.01005536
0.01005536
0.01005536
0.01005536
0.01005536
0.01009872
0.01009872
0.01009872
0.01009872
0.01009872
0.01000601
0.01000601
0.01000601
0.01000601
0.01000601
0.009795852
0.009795852
0.009795852
0.009795852
0.009795852
0.009781395
0.009781395
0.009781395
0.009781395
0.009781395
0.009991267
0.009991267
0.009991267
0.009991267
0.009991267
0.01009733
0.01009733
0.01009733
0.01009733
0.01009733
0.01008238
0.01008238
0.01008238
0.01008238
0.01008238
0.009994144
0.009994144
0.009994144
0.009994144
0.009994144
0.009777104
0.009777104
0.009777104
0.009777104
0.009777104
0.009758778
0.009758778
0.009758778
0.009758778
0.009758778
0.009965798
0.009965798
0.009965798
0.009965798
0.009965798
0.01006138
0.01006138
0.01006138
0.01006138
0.01006138
0.01007409
0.01007409
0.01007409
0.01007409
0.01007409
0.009986252
0.009986252
0.009986252
0.009986252
0.009986252
0.009768068
0.009768068
0.009768068
0.009768068
0.009768068
0.00974912
0.00974912
0.00974912
0.00974912
0.00974912
0.009954138
0.009954138
0.009954138
0.009954138
0.009954138
0.01005995
0.01005995
0.01005995
0.01005995
0.01005995
0.01007364
0.01007364
0.01007364
0.01007364
0.01007364
0.00998728
0.00998728
0.00998728
0.00998728
0.00998728
0.009767751
0.009767751
0.009767751
0.009767751
0.009767751
0.009755065
0.009755065
0.009755065
0.009755065
0.009755065
0.009959438
0.009959438
0.009959438
0.009959438
0.009959438
0.01006683
0.01006683
0.01006683
0.01006683
0.01006683
0.01008157
0.01008157
0.01008157
0.01008157
0.01008157
0.009995707
0.009995707
0.009995707
0.009995707
0.009995707
0.009791886
0.009791886
0.009791886
0.009791886
0.009791886
0.009771628
0.009771628
0.009771628
0.009771628
0.009771628
0.009975132
0.009975132
0.009975132
0.009975132
0.009975132
0.01008329
0.01008329
0.01008329
0.01008329
0.01008329
0.01009882
0.01009882
0.01009882
0.01009882
0.01009882
0.01001308
0.01001308
0.01001308
0.01001308
0.01001308
0.009791116
0.009791116
0.009791116
0.009791116
0.009791116
0.009769972
0.009769972
0.009769972
0.009769972
0.009769972
0.009972008
0.009972008
0.009972008
0.009972008
0.009972008
0.01007762
0.01007762
0.01007762
0.01007762
0.01007762
0.01006178
0.01006178
0.01006178
0.01006178
0.01006178
0.009929084
0.009929084
0.009929084
0.009929084
0.009929084
0.009614267
0.009614267
0.009614267
0.009614267
0.009614267
0.009453855
0.009453855
0.009453855
0.009453855
0.009453855
0.009393179
0.009393179
0.009393179
0.009393179
0.009393179
0.009489526
0.009489526
0.009489526
0.009489526
0.009489526
0.009802803
0.009802803
0.009802803
0.009802803
0.009802803
0.009980947
0.009980947
0.009980947
0.009980947
0.009980947
0.01002621
0.01002621
0.01002621
0.01002621
0.01002621
0.009951187
0.009951187
0.009951187
0.009951187
0.009951187
0.009740681
0.009740681
0.009740681
0.009740681
0.009740681
0.009726075
0.009726075
0.009726075
0.009726075
0.009726075
0.009935606
0.009935606
0.009935606
0.009935606
0.009935606
0.01004338
0.01004338
0.01004338
0.01004338
0.01004338
0.01005653
0.01005653
0.01005653
0.01005653
0.01005653
0.009975174
0.009975174
0.009975174
0.009975174
0.009975174
0.009756306
0.009756306
0.009756306
0.009756306
0.009756306
0.00973738
0.00973738
0.00973738
0.00973738
0.00973738
0.00994356
0.00994356
0.00994356
0.00994356
0.00994356
0.01005144
0.01005144
0.01005144
0.01005144
0.01005144
0.01008208
0.01008208
0.01008208
0.01008208
0.01008208
0.009992162
0.009992162
0.009992162
0.009992162
0.009992162
0.00977344
0.00977344
0.00977344
0.00977344
0.00977344
0.009754392
0.009754392
0.009754392
0.009754392
0.009754392
0.009961284
0.009961284
0.009961284
0.009961284
0.009961284
0.01006861
0.01006861
0.01006861
0.01006861
0.01006861
0.01008249
0.01008249
0.01008249
0.01008249
0.01008249
0.009994761
0.009994761
0.009994761
0.009994761
0.009994761
0.009773727
0.009773727
0.009773727
0.009773727
0.009773727
0.009753793
0.009753793
0.009753793
0.009753793
0.009753793
0.009940919
0.009940919
0.009940919
0.009940919
0.009940919
0.01005041
0.01005041
0.01005041
0.01005041
0.01005041
0.01006503
0.01006503
0.01006503
0.01006503
0.01006503
0.009976776
0.009976776
0.009976776
0.009976776
0.009976776
0.009756489
0.009756489
0.009756489
0.009756489
0.009756489
0.009729462
0.009729462
0.009729462
0.009729462
0.009729462
0.009934308
0.009934308
0.009934308
0.009934308
0.009934308