/*--------------------------------*- C++ -*----------------------------------*\
| =========                 |                                                 |
| \\      /  F ield         | OpenFOAM: The Open Source CFD Toolbox           |
|  \\    /   O peration     | Version:  4.0                                   |
|   \\  /    A nd           | Web:      www.OpenFOAM.org                      |
|    \\/     M anipulation  |                                                 |
\*---------------------------------------------------------------------------*/
FoamFile
{
    version     2.0;
    format      ascii;
    class       volScalarField;
    location    "120/electrolyte";
    object      etaOhmic;
}
// * * * * * * * * * * * * * * * * * * * * * * * * * * * * * * * * * * * * * //

dimensions      [1 2 -3 0 0 -1 0];

internalField   nonuniform List<scalar> 
4840
(
0.0048874
0.0048874
0.0048874
0.0048874
0.0048874
0.004873189
0.004873189
0.004873189
0.004873189
0.004873189
0.004855493
0.004855493
0.004855493
0.004855493
0.004855493
0.004859315
0.004859315
0.004859315
0.004859315
0.004859315
0.004876423
0.004876423
0.004876423
0.004876423
0.004876423
0.004871533
0.004871533
0.004871533
0.004871533
0.004871533
0.004883592
0.004883592
0.004883592
0.004883592
0.004883592
0.004887165
0.004887165
0.004887165
0.004887165
0.004887165
0.004875316
0.004875316
0.004875316
0.004875316
0.004875316
0.004893412
0.004893412
0.004893412
0.004893412
0.004893412
0.004915699
0.004915699
0.004915699
0.004915699
0.004915699
0.004882193
0.004882193
0.004882193
0.004882193
0.004882193
0.004895887
0.004895887
0.004895887
0.004895887
0.004895887
0.004898036
0.004898036
0.004898036
0.004898036
0.004898036
0.004886068
0.004886068
0.004886068
0.004886068
0.004886068
0.004916236
0.004916236
0.004916236
0.004916236
0.004916236
0.004918497
0.004918497
0.004918497
0.004918497
0.004918497
0.004886664
0.004886664
0.004886664
0.004886664
0.004886664
0.004898755
0.004898755
0.004898755
0.004898755
0.004898755
0.00489948
0.00489948
0.00489948
0.00489948
0.00489948
0.004887958
0.004887958
0.004887958
0.004887958
0.004887958
0.004921072
0.004921072
0.004921072
0.004921072
0.004921072
0.004920504
0.004920504
0.004920504
0.004920504
0.004920504
0.00488763
0.00488763
0.00488763
0.00488763
0.00488763
0.004899074
0.004899074
0.004899074
0.004899074
0.004899074
0.004898851
0.004898851
0.004898851
0.004898851
0.004898851
0.004886935
0.004886935
0.004886935
0.004886935
0.004886935
0.004918573
0.004918573
0.004918573
0.004918573
0.004918573
0.004915993
0.004915993
0.004915993
0.004915993
0.004915993
0.004885559
0.004885559
0.004885559
0.004885559
0.004885559
0.004897811
0.004897811
0.004897811
0.004897811
0.004897811
0.004895907
0.004895907
0.004895907
0.004895907
0.004895907
0.004882327
0.004882327
0.004882327
0.004882327
0.004882327
0.004915474
0.004915474
0.004915474
0.004915474
0.004915474
0.004893321
0.004893321
0.004893321
0.004893321
0.004893321
0.004875175
0.004875175
0.004875175
0.004875175
0.004875175
0.004887267
0.004887267
0.004887267
0.004887267
0.004887267
0.004883999
0.004883999
0.004883999
0.004883999
0.004883999
0.004871979
0.004871979
0.004871979
0.004871979
0.004871979
0.004876586
0.004876586
0.004876586
0.004876586
0.004876586
0.004858598
0.004858598
0.004858598
0.004858598
0.004858598
0.004854973
0.004854973
0.004854973
0.004854973
0.004854973
0.004873365
0.004873365
0.004873365
0.004873365
0.004873365
0.004888953
0.004888953
0.004888953
0.004888953
0.004888953
0.004912046
0.004912046
0.004912046
0.004912046
0.004912046
0.00495396
0.00495396
0.00495396
0.00495396
0.00495396
0.004992019
0.004992019
0.004992019
0.004992019
0.004992019
0.005001374
0.005001374
0.005001374
0.005001374
0.005001374
0.004986472
0.004986472
0.004986472
0.004986472
0.004986472
0.004981814
0.004981814
0.004981814
0.004981814
0.004981814
0.004930948
0.004930948
0.004930948
0.004930948
0.004930948
0.004960869
0.004960869
0.004960869
0.004960869
0.004960869
0.005005016
0.005005016
0.005005016
0.005005016
0.005005016
0.00500263
0.00500263
0.00500263
0.00500263
0.00500263
0.005001334
0.005001334
0.005001334
0.005001334
0.005001334
0.005003097
0.005003097
0.005003097
0.005003097
0.005003097
0.004952472
0.004952472
0.004952472
0.004952472
0.004952472
0.004962247
0.004962247
0.004962247
0.004962247
0.004962247
0.005008977
0.005008977
0.005008977
0.005008977
0.005008977
0.00500495
0.00500495
0.00500495
0.00500495
0.00500495
0.005004285
0.005004285
0.005004285
0.005004285
0.005004285
0.005007208
0.005007208
0.005007208
0.005007208
0.005007208
0.004958278
0.004958278
0.004958278
0.004958278
0.004958278
0.004960862
0.004960862
0.004960862
0.004960862
0.004960862
0.005008689
0.005008689
0.005008689
0.005008689
0.005008689
0.005005066
0.005005066
0.005005066
0.005005066
0.005005066
0.005004774
0.005004774
0.005004774
0.005004774
0.005004774
0.005008299
0.005008299
0.005008299
0.005008299
0.005008299
0.004960666
0.004960666
0.004960666
0.004960666
0.004960666
0.004958497
0.004958497
0.004958497
0.004958497
0.004958497
0.005007373
0.005007373
0.005007373
0.005007373
0.005007373
0.005004271
0.005004271
0.005004271
0.005004271
0.005004271
0.005004683
0.005004683
0.005004683
0.005004683
0.005004683
0.005008569
0.005008569
0.005008569
0.005008569
0.005008569
0.00496207
0.00496207
0.00496207
0.00496207
0.00496207
0.004952371
0.004952371
0.004952371
0.004952371
0.004952371
0.00500311
0.00500311
0.00500311
0.00500311
0.00500311
0.00500164
0.00500164
0.00500164
0.00500164
0.00500164
0.005002395
0.005002395
0.005002395
0.005002395
0.005002395
0.00500473
0.00500473
0.00500473
0.00500473
0.00500473
0.004960812
0.004960812
0.004960812
0.004960812
0.004960812
0.004931092
0.004931092
0.004931092
0.004931092
0.004931092
0.004981884
0.004981884
0.004981884
0.004981884
0.004981884
0.00498619
0.00498619
0.00498619
0.00498619
0.00498619
0.005000595
0.005000595
0.005000595
0.005000595
0.005000595
0.004991455
0.004991455
0.004991455
0.004991455
0.004991455
0.004953862
0.004953862
0.004953862
0.004953862
0.004953862
0.004912541
0.004912541
0.004912541
0.004912541
0.004912541
0.004930161
0.004930161
0.004930161
0.004930161
0.004930161
0.00496552
0.00496552
0.00496552
0.00496552
0.00496552
0.005000872
0.005000872
0.005000872
0.005000872
0.005000872
0.004989532
0.004989532
0.004989532
0.004989532
0.004989532
0.004958199
0.004958199
0.004958199
0.004958199
0.004958199
0.004961101
0.004961101
0.004961101
0.004961101
0.004961101
0.004927617
0.004927617
0.004927617
0.004927617
0.004927617
0.004954023
0.004954023
0.004954023
0.004954023
0.004954023
0.004994055
0.004994055
0.004994055
0.004994055
0.004994055
0.004977186
0.004977186
0.004977186
0.004977186
0.004977186
0.0049716
0.0049716
0.0049716
0.0049716
0.0049716
0.004985715
0.004985715
0.004985715
0.004985715
0.004985715
0.004939364
0.004939364
0.004939364
0.004939364
0.004939364
0.004950828
0.004950828
0.004950828
0.004950828
0.004950828
0.004993934
0.004993934
0.004993934
0.004993934
0.004993934
0.004974733
0.004974733
0.004974733
0.004974733
0.004974733
0.004972625
0.004972625
0.004972625
0.004972625
0.004972625
0.004989989
0.004989989
0.004989989
0.004989989
0.004989989
0.00494475
0.00494475
0.00494475
0.00494475
0.00494475
0.004948104
0.004948104
0.004948104
0.004948104
0.004948104
0.004992172
0.004992172
0.004992172
0.004992172
0.004992172
0.004973399
0.004973399
0.004973399
0.004973399
0.004973399
0.00497319
0.00497319
0.00497319
0.00497319
0.00497319
0.004991882
0.004991882
0.004991882
0.004991882
0.004991882
0.004947913
0.004947913
0.004947913
0.004947913
0.004947913
0.004944949
0.004944949
0.004944949
0.004944949
0.004944949
0.004990261
0.004990261
0.004990261
0.004990261
0.004990261
0.004972719
0.004972719
0.004972719
0.004972719
0.004972719
0.00497454
0.00497454
0.00497454
0.00497454
0.00497454
0.004993604
0.004993604
0.004993604
0.004993604
0.004993604
0.004950703
0.004950703
0.004950703
0.004950703
0.004950703
0.004939447
0.004939447
0.004939447
0.004939447
0.004939447
0.004985792
0.004985792
0.004985792
0.004985792
0.004985792
0.004971468
0.004971468
0.004971468
0.004971468
0.004971468
0.004976847
0.004976847
0.004976847
0.004976847
0.004976847
0.004993532
0.004993532
0.004993532
0.004993532
0.004993532
0.004953843
0.004953843
0.004953843
0.004953843
0.004953843
0.004927616
0.004927616
0.004927616
0.004927616
0.004927616
0.004961009
0.004961009
0.004961009
0.004961009
0.004961009
0.00495768
0.00495768
0.00495768
0.00495768
0.00495768
0.004988272
0.004988272
0.004988272
0.004988272
0.004988272
0.004999176
0.004999176
0.004999176
0.004999176
0.004999176
0.004964338
0.004964338
0.004964338
0.004964338
0.004964338
0.004929313
0.004929313
0.004929313
0.004929313
0.004929313
0.004927777
0.004927777
0.004927777
0.004927777
0.004927777
0.004955204
0.004955204
0.004955204
0.004955204
0.004955204
0.00499051
0.00499051
0.00499051
0.00499051
0.00499051
0.00497486
0.00497486
0.00497486
0.00497486
0.00497486
0.004936136
0.004936136
0.004936136
0.004936136
0.004936136
0.004941006
0.004941006
0.004941006
0.004941006
0.004941006
0.004912537
0.004912537
0.004912537
0.004912537
0.004912537
0.004939604
0.004939604
0.004939604
0.004939604
0.004939604
0.004977179
0.004977179
0.004977179
0.004977179
0.004977179
0.004955478
0.004955478
0.004955478
0.004955478
0.004955478
0.004948562
0.004948562
0.004948562
0.004948562
0.004948562
0.004966491
0.004966491
0.004966491
0.004966491
0.004966491
0.004925275
0.004925275
0.004925275
0.004925275
0.004925275
0.004936323
0.004936323
0.004936323
0.004936323
0.004936323
0.004975981
0.004975981
0.004975981
0.004975981
0.004975981
0.004952359
0.004952359
0.004952359
0.004952359
0.004952359
0.00495042
0.00495042
0.00495042
0.00495042
0.00495042
0.00497195
0.00497195
0.00497195
0.00497195
0.00497195
0.00493103
0.00493103
0.00493103
0.00493103
0.00493103
0.004934175
0.004934175
0.004934175
0.004934175
0.004934175
0.004974386
0.004974386
0.004974386
0.004974386
0.004974386
0.004951564
0.004951564
0.004951564
0.004951564
0.004951564
0.004951416
0.004951416
0.004951416
0.004951416
0.004951416
0.004974291
0.004974291
0.004974291
0.004974291
0.004974291
0.004934128
0.004934128
0.004934128
0.004934128
0.004934128
0.004931112
0.004931112
0.004931112
0.004931112
0.004931112
0.004972279
0.004972279
0.004972279
0.004972279
0.004972279
0.004950701
0.004950701
0.004950701
0.004950701
0.004950701
0.004952287
0.004952287
0.004952287
0.004952287
0.004952287
0.004975914
0.004975914
0.004975914
0.004975914
0.004975914
0.004936404
0.004936404
0.004936404
0.004936404
0.004936404
0.004925556
0.004925556
0.004925556
0.004925556
0.004925556
0.004966798
0.004966798
0.004966798
0.004966798
0.004966798
0.004948465
0.004948465
0.004948465
0.004948465
0.004948465
0.004955237
0.004955237
0.004955237
0.004955237
0.004955237
0.00497692
0.00497692
0.00497692
0.00497692
0.00497692
0.004939624
0.004939624
0.004939624
0.004939624
0.004939624
0.004912633
0.004912633
0.004912633
0.004912633
0.004912633
0.004941296
0.004941296
0.004941296
0.004941296
0.004941296
0.00493605
0.00493605
0.00493605
0.00493605
0.00493605
0.004974233
0.004974233
0.004974233
0.004974233
0.004974233
0.004989402
0.004989402
0.004989402
0.004989402
0.004989402
0.004954147
0.004954147
0.004954147
0.004954147
0.004954147
0.00492655
0.00492655
0.00492655
0.00492655
0.00492655
0.004912185
0.004912185
0.004912185
0.004912185
0.004912185
0.004942602
0.004942602
0.004942602
0.004942602
0.004942602
0.004975541
0.004975541
0.004975541
0.004975541
0.004975541
0.004959316
0.004959316
0.004959316
0.004959316
0.004959316
0.004920038
0.004920038
0.004920038
0.004920038
0.004920038
0.004922528
0.004922528
0.004922528
0.004922528
0.004922528
0.004904373
0.004904373
0.004904373
0.004904373
0.004904373
0.004928822
0.004928822
0.004928822
0.004928822
0.004928822
0.00496125
0.00496125
0.00496125
0.00496125
0.00496125
0.004939034
0.004939034
0.004939034
0.004939034
0.004939034
0.004930875
0.004930875
0.004930875
0.004930875
0.004930875
0.004946728
0.004946728
0.004946728
0.004946728
0.004946728
0.00491626
0.00491626
0.00491626
0.00491626
0.00491626
0.004924752
0.004924752
0.004924752
0.004924752
0.004924752
0.004958016
0.004958016
0.004958016
0.004958016
0.004958016
0.004935283
0.004935283
0.004935283
0.004935283
0.004935283
0.004933047
0.004933047
0.004933047
0.004933047
0.004933047
0.004952718
0.004952718
0.004952718
0.004952718
0.004952718
0.004920828
0.004920828
0.004920828
0.004920828
0.004920828
0.004922957
0.004922957
0.004922957
0.004922957
0.004922957
0.004955132
0.004955132
0.004955132
0.004955132
0.004955132
0.004933843
0.004933843
0.004933843
0.004933843
0.004933843
0.004933718
0.004933718
0.004933718
0.004933718
0.004933718
0.004955132
0.004955132
0.004955132
0.004955132
0.004955132
0.004923345
0.004923345
0.004923345
0.004923345
0.004923345
0.004920908
0.004920908
0.004920908
0.004920908
0.004920908
0.004952842
0.004952842
0.004952842
0.004952842
0.004952842
0.004933212
0.004933212
0.004933212
0.004933212
0.004933212
0.004935292
0.004935292
0.004935292
0.004935292
0.004935292
0.004958281
0.004958281
0.004958281
0.004958281
0.004958281
0.004925114
0.004925114
0.004925114
0.004925114
0.004925114
0.004916423
0.004916423
0.004916423
0.004916423
0.004916423
0.004946881
0.004946881
0.004946881
0.004946881
0.004946881
0.00493103
0.00493103
0.00493103
0.00493103
0.00493103
0.004939062
0.004939062
0.004939062
0.004939062
0.004939062
0.004961354
0.004961354
0.004961354
0.004961354
0.004961354
0.004929192
0.004929192
0.004929192
0.004929192
0.004929192
0.004904587
0.004904587
0.004904587
0.004904587
0.004904587
0.004922797
0.004922797
0.004922797
0.004922797
0.004922797
0.004919978
0.004919978
0.004919978
0.004919978
0.004919978
0.00495909
0.00495909
0.00495909
0.00495909
0.00495909
0.004975545
0.004975545
0.004975545
0.004975545
0.004975545
0.004942903
0.004942903
0.004942903
0.004942903
0.004942903
0.004912229
0.004912229
0.004912229
0.004912229
0.004912229
0.004900881
0.004900881
0.004900881
0.004900881
0.004900881
0.004932426
0.004932426
0.004932426
0.004932426
0.004932426
0.004961718
0.004961718
0.004961718
0.004961718
0.004961718
0.004946675
0.004946675
0.004946675
0.004946675
0.004946675
0.004907644
0.004907644
0.004907644
0.004907644
0.004907644
0.004908762
0.004908762
0.004908762
0.004908762
0.004908762
0.004893498
0.004893498
0.004893498
0.004893498
0.004893498
0.004918787
0.004918787
0.004918787
0.004918787
0.004918787
0.004947844
0.004947844
0.004947844
0.004947844
0.004947844
0.004925743
0.004925743
0.004925743
0.004925743
0.004925743
0.004915312
0.004915312
0.004915312
0.004915312
0.004915312
0.004931554
0.004931554
0.004931554
0.004931554
0.004931554
0.004904511
0.004904511
0.004904511
0.004904511
0.004904511
0.004913141
0.004913141
0.004913141
0.004913141
0.004913141
0.004943287
0.004943287
0.004943287
0.004943287
0.004943287
0.004920233
0.004920233
0.004920233
0.004920233
0.004920233
0.004917733
0.004917733
0.004917733
0.004917733
0.004917733
0.00493739
0.00493739
0.00493739
0.00493739
0.00493739
0.004908912
0.004908912
0.004908912
0.004908912
0.004908912
0.004911373
0.004911373
0.004911373
0.004911373
0.004911373
0.00494017
0.00494017
0.00494017
0.00494017
0.00494017
0.004918813
0.004918813
0.004918813
0.004918813
0.004918813
0.004918693
0.004918693
0.004918693
0.004918693
0.004918693
0.004940184
0.004940184
0.004940184
0.004940184
0.004940184
0.004911432
0.004911432
0.004911432
0.004911432
0.004911432
0.004908853
0.004908853
0.004908853
0.004908853
0.004908853
0.004937396
0.004937396
0.004937396
0.004937396
0.004937396
0.004917791
0.004917791
0.004917791
0.004917791
0.004917791
0.004920118
0.004920118
0.004920118
0.004920118
0.004920118
0.004942981
0.004942981
0.004942981
0.004942981
0.004942981
0.00491362
0.00491362
0.00491362
0.00491362
0.00491362
0.004904772
0.004904772
0.004904772
0.004904772
0.004904772
0.004931808
0.004931808
0.004931808
0.004931808
0.004931808
0.00491556
0.00491556
0.00491556
0.00491556
0.00491556
0.004925009
0.004925009
0.004925009
0.004925009
0.004925009
0.004947314
0.004947314
0.004947314
0.004947314
0.004947314
0.004918552
0.004918552
0.004918552
0.004918552
0.004918552
0.004893095
0.004893095
0.004893095
0.004893095
0.004893095
0.004908398
0.004908398
0.004908398
0.004908398
0.004908398
0.004907074
0.004907074
0.004907074
0.004907074
0.004907074
0.004944931
0.004944931
0.004944931
0.004944931
0.004944931
0.004960347
0.004960347
0.004960347
0.004960347
0.004960347
0.004931526
0.004931526
0.004931526
0.004931526
0.004931526
0.004899894
0.004899894
0.004899894
0.004899894
0.004899894
0.004889084
0.004889084
0.004889084
0.004889084
0.004889084
0.004921313
0.004921313
0.004921313
0.004921313
0.004921313
0.004946276
0.004946276
0.004946276
0.004946276
0.004946276
0.004933588
0.004933588
0.004933588
0.004933588
0.004933588
0.004895797
0.004895797
0.004895797
0.004895797
0.004895797
0.004894738
0.004894738
0.004894738
0.004894738
0.004894738
0.004881707
0.004881707
0.004881707
0.004881707
0.004881707
0.00490809
0.00490809
0.00490809
0.00490809
0.00490809
0.004933495
0.004933495
0.004933495
0.004933495
0.004933495
0.004912537
0.004912537
0.004912537
0.004912537
0.004912537
0.004901817
0.004901817
0.004901817
0.004901817
0.004901817
0.004918237
0.004918237
0.004918237
0.004918237
0.004918237
0.004893147
0.004893147
0.004893147
0.004893147
0.004893147
0.004902816
0.004902816
0.004902816
0.004902816
0.004902816
0.004929592
0.004929592
0.004929592
0.004929592
0.004929592
0.004907672
0.004907672
0.004907672
0.004907672
0.004907672
0.004905668
0.004905668
0.004905668
0.004905668
0.004905668
0.00492494
0.00492494
0.00492494
0.00492494
0.00492494
0.004899098
0.004899098
0.004899098
0.004899098
0.004899098
0.004901604
0.004901604
0.004901604
0.004901604
0.004901604
0.004927702
0.004927702
0.004927702
0.004927702
0.004927702
0.004906838
0.004906838
0.004906838
0.004906838
0.004906838
0.00490673
0.00490673
0.00490673
0.00490673
0.00490673
0.004927685
0.004927685
0.004927685
0.004927685
0.004927685
0.00490168
0.00490168
0.00490168
0.00490168
0.00490168
0.004898991
0.004898991
0.004898991
0.004898991
0.004898991
0.004924105
0.004924105
0.004924105
0.004924105
0.004924105
0.004904895
0.004904895
0.004904895
0.004904895
0.004904895
0.004907488
0.004907488
0.004907488
0.004907488
0.004907488
0.004929547
0.004929547
0.004929547
0.004929547
0.004929547
0.004902979
0.004902979
0.004902979
0.004902979
0.004902979
0.004892915
0.004892915
0.004892915
0.004892915
0.004892915
0.004917984
0.004917984
0.004917984
0.004917984
0.004917984
0.00490163
0.00490163
0.00490163
0.00490163
0.00490163
0.004912231
0.004912231
0.004912231
0.004912231
0.004912231
0.004933406
0.004933406
0.004933406
0.004933406
0.004933406
0.00490833
0.00490833
0.00490833
0.00490833
0.00490833
0.004881749
0.004881749
0.004881749
0.004881749
0.004881749
0.004894825
0.004894825
0.004894825
0.004894825
0.004894825
0.004895563
0.004895563
0.004895563
0.004895563
0.004895563
0.004933062
0.004933062
0.004933062
0.004933062
0.004933062
0.004946304
0.004946304
0.004946304
0.004946304
0.004946304
0.004921868
0.004921868
0.004921868
0.004921868
0.004921868
0.004889323
0.004889323
0.004889323
0.004889323
0.004889323
0.004878937
0.004878937
0.004878937
0.004878937
0.004878937
0.004912119
0.004912119
0.004912119
0.004912119
0.004912119
0.004934824
0.004934824
0.004934824
0.004934824
0.004934824
0.004924088
0.004924088
0.004924088
0.004924088
0.004924088
0.004888158
0.004888158
0.004888158
0.004888158
0.004888158
0.004885116
0.004885116
0.004885116
0.004885116
0.004885116
0.004872953
0.004872953
0.004872953
0.004872953
0.004872953
0.004900414
0.004900414
0.004900414
0.004900414
0.004900414
0.00492309
0.00492309
0.00492309
0.00492309
0.00492309
0.004903229
0.004903229
0.004903229
0.004903229
0.004903229
0.004891688
0.004891688
0.004891688
0.004891688
0.004891688
0.004908025
0.004908025
0.004908025
0.004908025
0.004908025
0.004882897
0.004882897
0.004882897
0.004882897
0.004882897
0.004893689
0.004893689
0.004893689
0.004893689
0.004893689
0.004918226
0.004918226
0.004918226
0.004918226
0.004918226
0.004897035
0.004897035
0.004897035
0.004897035
0.004897035
0.004894095
0.004894095
0.004894095
0.004894095
0.004894095
0.004913045
0.004913045
0.004913045
0.004913045
0.004913045
0.004888152
0.004888152
0.004888152
0.004888152
0.004888152
0.004890968
0.004890968
0.004890968
0.004890968
0.004890968
0.004915662
0.004915662
0.004915662
0.004915662
0.004915662
0.004895239
0.004895239
0.004895239
0.004895239
0.004895239
0.004895155
0.004895155
0.004895155
0.004895155
0.004895155
0.004915733
0.004915733
0.004915733
0.004915733
0.004915733
0.004891132
0.004891132
0.004891132
0.004891132
0.004891132
0.004888062
0.004888062
0.004888062
0.004888062
0.004888062
0.004912995
0.004912995
0.004912995
0.004912995
0.004912995
0.004894132
0.004894132
0.004894132
0.004894132
0.004894132
0.004896931
0.004896931
0.004896931
0.004896931
0.004896931
0.004918286
0.004918286
0.004918286
0.004918286
0.004918286
0.004893968
0.004893968
0.004893968
0.004893968
0.004893968
0.004882889
0.004882889
0.004882889
0.004882889
0.004882889
0.004907982
0.004907982
0.004907982
0.004907982
0.004907982
0.004891628
0.004891628
0.004891628
0.004891628
0.004891628
0.004903068
0.004903068
0.004903068
0.004903068
0.004903068
0.004923178
0.004923178
0.004923178
0.004923178
0.004923178
0.004900852
0.004900852
0.004900852
0.004900852
0.004900852
0.00487313
0.00487313
0.00487313
0.00487313
0.00487313
0.004885195
0.004885195
0.004885195
0.004885195
0.004885195
0.004887916
0.004887916
0.004887916
0.004887916
0.004887916
0.004923596
0.004923596
0.004923596
0.004923596
0.004923596
0.004934796
0.004934796
0.004934796
0.004934796
0.004934796
0.004912686
0.004912686
0.004912686
0.004912686
0.004912686
0.004879444
0.004879444
0.004879444
0.004879444
0.004879444
0.004869426
0.004869426
0.004869426
0.004869426
0.004869426
0.004903114
0.004903114
0.004903114
0.004903114
0.004903114
0.004923131
0.004923131
0.004923131
0.004923131
0.004923131
0.004913771
0.004913771
0.004913771
0.004913771
0.004913771
0.004879937
0.004879937
0.004879937
0.004879937
0.004879937
0.004875725
0.004875725
0.004875725
0.004875725
0.004875725
0.004862642
0.004862642
0.004862642
0.004862642
0.004862642
0.00489176
0.00489176
0.00489176
0.00489176
0.00489176
0.004912071
0.004912071
0.004912071
0.004912071
0.004912071
0.00489356
0.00489356
0.00489356
0.00489356
0.00489356
0.00488145
0.00488145
0.00488145
0.00488145
0.00488145
0.004897376
0.004897376
0.004897376
0.004897376
0.004897376
0.004873577
0.004873577
0.004873577
0.004873577
0.004873577
0.004885054
0.004885054
0.004885054
0.004885054
0.004885054
0.00490839
0.00490839
0.00490839
0.00490839
0.00490839
0.004887945
0.004887945
0.004887945
0.004887945
0.004887945
0.004884942
0.004884942
0.004884942
0.004884942
0.004884942
0.004903744
0.004903744
0.004903744
0.004903744
0.004903744
0.004879797
0.004879797
0.004879797
0.004879797
0.004879797
0.004882647
0.004882647
0.004882647
0.004882647
0.004882647
0.004906894
0.004906894
0.004906894
0.004906894
0.004906894
0.004886996
0.004886996
0.004886996
0.004886996
0.004886996
0.004886943
0.004886943
0.004886943
0.004886943
0.004886943
0.004907068
0.004907068
0.004907068
0.004907068
0.004907068
0.004882893
0.004882893
0.004882893
0.004882893
0.004882893
0.004879723
0.004879723
0.004879723
0.004879723
0.004879723
0.004904453
0.004904453
0.004904453
0.004904453
0.004904453
0.004885764
0.004885764
0.004885764
0.004885764
0.004885764
0.004887922
0.004887922
0.004887922
0.004887922
0.004887922
0.004908564
0.004908564
0.004908564
0.004908564
0.004908564
0.004885441
0.004885441
0.004885441
0.004885441
0.004885441
0.004873771
0.004873771
0.004873771
0.004873771
0.004873771
0.004897493
0.004897493
0.004897493
0.004897493
0.004897493
0.0048815
0.0048815
0.0048815
0.0048815
0.0048815
0.004893547
0.004893547
0.004893547
0.004893547
0.004893547
0.004912336
0.004912336
0.004912336
0.004912336
0.004912336
0.004892376
0.004892376
0.004892376
0.004892376
0.004892376
0.004862936
0.004862936
0.004862936
0.004862936
0.004862936
0.004875789
0.004875789
0.004875789
0.004875789
0.004875789
0.004879705
0.004879705
0.004879705
0.004879705
0.004879705
0.00491335
0.00491335
0.00491335
0.00491335
0.00491335
0.00492308
0.00492308
0.00492308
0.00492308
0.00492308
0.004903685
0.004903685
0.004903685
0.004903685
0.004903685
0.004870128
0.004870128
0.004870128
0.004870128
0.004870128
0.004860846
0.004860846
0.004860846
0.004860846
0.004860846
0.004894452
0.004894452
0.004894452
0.004894452
0.004894452
0.004913431
0.004913431
0.004913431
0.004913431
0.004913431
0.004905422
0.004905422
0.004905422
0.004905422
0.004905422
0.004874524
0.004874524
0.004874524
0.004874524
0.004874524
0.004869916
0.004869916
0.004869916
0.004869916
0.004869916
0.004855533
0.004855533
0.004855533
0.004855533
0.004855533
0.004884655
0.004884655
0.004884655
0.004884655
0.004884655
0.004903947
0.004903947
0.004903947
0.004903947
0.004903947
0.004886898
0.004886898
0.004886898
0.004886898
0.004886898
0.004874379
0.004874379
0.004874379
0.004874379
0.004874379
0.004889572
0.004889572
0.004889572
0.004889572
0.004889572
0.004866172
0.004866172
0.004866172
0.004866172
0.004866172
0.004877561
0.004877561
0.004877561
0.004877561
0.004877561
0.004899924
0.004899924
0.004899924
0.004899924
0.004899924
0.004880304
0.004880304
0.004880304
0.004880304
0.004880304
0.004877184
0.004877184
0.004877184
0.004877184
0.004877184
0.004895372
0.004895372
0.004895372
0.004895372
0.004895372
0.004870793
0.004870793
0.004870793
0.004870793
0.004870793
0.004873397
0.004873397
0.004873397
0.004873397
0.004873397
0.004897854
0.004897854
0.004897854
0.004897854
0.004897854
0.004878483
0.004878483
0.004878483
0.004878483
0.004878483
0.004878466
0.004878466
0.004878466
0.004878466
0.004878466
0.004898058
0.004898058
0.004898058
0.004898058
0.004898058
0.004873681
0.004873681
0.004873681
0.004873681
0.004873681
0.004870649
0.004870649
0.004870649
0.004870649
0.004870649
0.004895187
0.004895187
0.004895187
0.004895187
0.004895187
0.004877147
0.004877147
0.004877147
0.004877147
0.004877147
0.004880252
0.004880252
0.004880252
0.004880252
0.004880252
0.004900419
0.004900419
0.004900419
0.004900419
0.004900419
0.004877652
0.004877652
0.004877652
0.004877652
0.004877652
0.004865839
0.004865839
0.004865839
0.004865839
0.004865839
0.004889088
0.004889088
0.004889088
0.004889088
0.004889088
0.004873969
0.004873969
0.004873969
0.004873969
0.004873969
0.004887332
0.004887332
0.004887332
0.004887332
0.004887332
0.004904652
0.004904652
0.004904652
0.004904652
0.004904652
0.004885716
0.004885716
0.004885716
0.004885716
0.004885716
0.004856246
0.004856246
0.004856246
0.004856246
0.004856246
0.004870341
0.004870341
0.004870341
0.004870341
0.004870341
0.004874609
0.004874609
0.004874609
0.004874609
0.004874609
0.004906229
0.004906229
0.004906229
0.004906229
0.004906229
0.004914773
0.004914773
0.004914773
0.004914773
0.004914773
0.004896428
0.004896428
0.004896428
0.004896428
0.004896428
0.004862686
0.004862686
0.004862686
0.004862686
0.004862686
0.004853017
0.004853017
0.004853017
0.004853017
0.004853017
0.004886291
0.004886291
0.004886291
0.004886291
0.004886291
0.004904646
0.004904646
0.004904646
0.004904646
0.004904646
0.00489779
0.00489779
0.00489779
0.00489779
0.00489779
0.004868076
0.004868076
0.004868076
0.004868076
0.004868076
0.00486329
0.00486329
0.00486329
0.00486329
0.00486329
0.004847876
0.004847876
0.004847876
0.004847876
0.004847876
0.004875461
0.004875461
0.004875461
0.004875461
0.004875461
0.004894513
0.004894513
0.004894513
0.004894513
0.004894513
0.004879179
0.004879179
0.004879179
0.004879179
0.004879179
0.00486517
0.00486517
0.00486517
0.00486517
0.00486517
0.004879671
0.004879671
0.004879671
0.004879671
0.004879671
0.004856048
0.004856048
0.004856048
0.004856048
0.004856048
0.004867383
0.004867383
0.004867383
0.004867383
0.004867383
0.004890438
0.004890438
0.004890438
0.004890438
0.004890438
0.004871715
0.004871715
0.004871715
0.004871715
0.004871715
0.004868244
0.004868244
0.004868244
0.004868244
0.004868244
0.0048855
0.0048855
0.0048855
0.0048855
0.0048855
0.004861229
0.004861229
0.004861229
0.004861229
0.004861229
0.004863658
0.004863658
0.004863658
0.004863658
0.004863658
0.004888691
0.004888691
0.004888691
0.004888691
0.004888691
0.004869865
0.004869865
0.004869865
0.004869865
0.004869865
0.004869899
0.004869899
0.004869899
0.004869899
0.004869899
0.004888975
0.004888975
0.004888975
0.004888975
0.004888975
0.004864019
0.004864019
0.004864019
0.004864019
0.004864019
0.004860955
0.004860955
0.004860955
0.004860955
0.004860955
0.004885132
0.004885132
0.004885132
0.004885132
0.004885132
0.00486808
0.00486808
0.00486808
0.00486808
0.00486808
0.004871606
0.004871606
0.004871606
0.004871606
0.004871606
0.00489047
0.00489047
0.00489047
0.00489047
0.00489047
0.004868615
0.004868615
0.004868615
0.004868615
0.004868615
0.00485677
0.00485677
0.00485677
0.00485677
0.00485677
0.004880237
0.004880237
0.004880237
0.004880237
0.004880237
0.004865831
0.004865831
0.004865831
0.004865831
0.004865831
0.004878473
0.004878473
0.004878473
0.004878473
0.004878473
0.004893991
0.004893991
0.004893991
0.004893991
0.004893991
0.004875294
0.004875294
0.004875294
0.004875294
0.004875294
0.004847283
0.004847283
0.004847283
0.004847283
0.004847283
0.004862331
0.004862331
0.004862331
0.004862331
0.004862331
0.004866635
0.004866635
0.004866635
0.004866635
0.004866635
0.004895217
0.004895217
0.004895217
0.004895217
0.004895217
0.00490264
0.00490264
0.00490264
0.00490264
0.00490264
0.004884925
0.004884925
0.004884925
0.004884925
0.004884925
0.004851491
0.004851491
0.004851491
0.004851491
0.004851491
0.004843187
0.004843187
0.004843187
0.004843187
0.004843187
0.004875564
0.004875564
0.004875564
0.004875564
0.004875564
0.004893575
0.004893575
0.004893575
0.004893575
0.004893575
0.004888209
0.004888209
0.004888209
0.004888209
0.004888209
0.004860601
0.004860601
0.004860601
0.004860601
0.004860601
0.004855229
0.004855229
0.004855229
0.004855229
0.004855229
0.004839368
0.004839368