/*--------------------------------*- C++ -*----------------------------------*\
| =========                 |                                                 |
| \\      /  F ield         | OpenFOAM: The Open Source CFD Toolbox           |
|  \\    /   O peration     | Version:  4.0                                   |
|   \\  /    A nd           | Web:      www.OpenFOAM.org                      |
|    \\/     M anipulation  |                                                 |
\*---------------------------------------------------------------------------*/
FoamFile
{
    version     2.0;
    format      ascii;
    class       volScalarField;
    location    "120/electrolyte";
    object      I;
}
// * * * * * * * * * * * * * * * * * * * * * * * * * * * * * * * * * * * * * //

dimensions      [0 -2 0 0 0 1 0];

internalField   nonuniform List<scalar> 
4840
(
200.367
200.367
200.367
200.367
200.367
199.7435
199.7435
199.7435
199.7435
199.7435
199.0113
199.0113
199.0113
199.0113
199.0113
199.1918
199.1918
199.1918
199.1918
199.1918
199.9049
199.9049
199.9049
199.9049
199.9049
199.6934
199.6934
199.6934
199.6934
199.6934
200.1686
200.1686
200.1686
200.1686
200.1686
200.304
200.304
200.304
200.304
200.304
199.8141
199.8141
199.8141
199.8141
199.8141
200.5646
200.5646
200.5646
200.5646
200.5646
201.4791
201.4791
201.4791
201.4791
201.4791
200.0942
200.0942
200.0942
200.0942
200.0942
200.647
200.647
200.647
200.647
200.647
200.7281
200.7281
200.7281
200.7281
200.7281
200.2363
200.2363
200.2363
200.2363
200.2363
201.4868
201.4868
201.4868
201.4868
201.4868
201.5856
201.5856
201.5856
201.5856
201.5856
200.2705
200.2705
200.2705
200.2705
200.2705
200.7593
200.7593
200.7593
200.7593
200.7593
200.7837
200.7837
200.7837
200.7837
200.7837
200.3108
200.3108
200.3108
200.3108
200.3108
201.6825
201.6825
201.6825
201.6825
201.6825
201.6667
201.6667
201.6667
201.6667
201.6667
200.3081
200.3081
200.3081
200.3081
200.3081
200.7694
200.7694
200.7694
200.7694
200.7694
200.7584
200.7584
200.7584
200.7584
200.7584
200.2708
200.2708
200.2708
200.2708
200.2708
201.5812
201.5812
201.5812
201.5812
201.5812
201.4834
201.4834
201.4834
201.4834
201.4834
200.2252
200.2252
200.2252
200.2252
200.2252
200.7197
200.7197
200.7197
200.7197
200.7197
200.6404
200.6404
200.6404
200.6404
200.6404
200.0859
200.0859
200.0859
200.0859
200.0859
201.4574
201.4574
201.4574
201.4574
201.4574
200.5594
200.5594
200.5594
200.5594
200.5594
199.8099
199.8099
199.8099
199.8099
199.8099
200.3013
200.3013
200.3013
200.3013
200.3013
200.1667
200.1667
200.1667
200.1667
200.1667
199.6872
199.6872
199.6872
199.6872
199.6872
199.8995
199.8995
199.8995
199.8995
199.8995
199.174
199.174
199.174
199.174
199.174
199.0042
199.0042
199.0042
199.0042
199.0042
199.7339
199.7339
199.7339
199.7339
199.7339
200.3534
200.3534
200.3534
200.3534
200.3534
201.2551
201.2551
201.2551
201.2551
201.2551
202.9529
202.9529
202.9529
202.9529
202.9529
204.5191
204.5191
204.5191
204.5191
204.5191
204.9229
204.9229
204.9229
204.9229
204.9229
204.3354
204.3354
204.3354
204.3354
204.3354
204.1397
204.1397
204.1397
204.1397
204.1397
202.0561
202.0561
202.0561
202.0561
202.0561
203.2696
203.2696
203.2696
203.2696
203.2696
205.0842
205.0842
205.0842
205.0842
205.0842
205.0011
205.0011
205.0011
205.0011
205.0011
204.9582
204.9582
204.9582
204.9582
204.9582
205.0232
205.0232
205.0232
205.0232
205.0232
202.9418
202.9418
202.9418
202.9418
202.9418
203.3333
203.3333
203.3333
203.3333
203.3333
205.2533
205.2533
205.2533
205.2533
205.2533
205.104
205.104
205.104
205.104
205.104
205.0857
205.0857
205.0857
205.0857
205.0857
205.1978
205.1978
205.1978
205.1978
205.1978
203.183
203.183
203.183
203.183
203.183
203.2819
203.2819
203.2819
203.2819
203.2819
205.246
205.246
205.246
205.246
205.246
205.1127
205.1127
205.1127
205.1127
205.1127
205.1085
205.1085
205.1085
205.1085
205.1085
205.2436
205.2436
205.2436
205.2436
205.2436
203.2793
203.2793
203.2793
203.2793
203.2793
203.1864
203.1864
203.1864
203.1864
203.1864
205.1931
205.1931
205.1931
205.1931
205.1931
205.08
205.08
205.08
205.08
205.08
205.1029
205.1029
205.1029
205.1029
205.1029
205.2519
205.2519
205.2519
205.2519
205.2519
203.3318
203.3318
203.3318
203.3318
203.3318
202.9324
202.9324
202.9324
202.9324
202.9324
205.014
205.014
205.014
205.014
205.014
204.9672
204.9672
204.9672
204.9672
204.9672
205.0021
205.0021
205.0021
205.0021
205.0021
205.088
205.088
205.088
205.088
205.088
203.2714
203.2714
203.2714
203.2714
203.2714
202.0582
202.0582
202.0582
202.0582
202.0582
204.1385
204.1385
204.1385
204.1385
204.1385
204.331
204.331
204.331
204.331
204.331
204.9164
204.9164
204.9164
204.9164
204.9164
204.5224
204.5224
204.5224
204.5224
204.5224
202.9558
202.9558
202.9558
202.9558
202.9558
201.2468
201.2468
201.2468
201.2468
201.2468
202.0142
202.0142
202.0142
202.0142
202.0142
203.44
203.44
203.44
203.44
203.44
204.9402
204.9402
204.9402
204.9402
204.9402
204.5149
204.5149
204.5149
204.5149
204.5149
203.2652
203.2652
203.2652
203.2652
203.2652
203.385
203.385
203.385
203.385
203.385
202.0273
202.0273
202.0273
202.0273
202.0273
203.0905
203.0905
203.0905
203.0905
203.0905
204.7451
204.7451
204.7451
204.7451
204.7451
204.0693
204.0693
204.0693
204.0693
204.0693
203.8514
203.8514
203.8514
203.8514
203.8514
204.4294
204.4294
204.4294
204.4294
204.4294
202.5277
202.5277
202.5277
202.5277
202.5277
202.9876
202.9876
202.9876
202.9876
202.9876
204.7627
204.7627
204.7627
204.7627
204.7627
203.9858
203.9858
203.9858
203.9858
203.9858
203.9066
203.9066
203.9066
203.9066
203.9066
204.6156
204.6156
204.6156
204.6156
204.6156
202.7538
202.7538
202.7538
202.7538
202.7538
202.8857
202.8857
202.8857
202.8857
202.8857
204.6976
204.6976
204.6976
204.6976
204.6976
203.937
203.937
203.937
203.937
203.937
203.9331
203.9331
203.9331
203.9331
203.9331
204.6952
204.6952
204.6952
204.6952
204.6952
202.8822
202.8822
202.8822
202.8822
202.8822
202.758
202.758
202.758
202.758
202.758
204.6198
204.6198
204.6198
204.6198
204.6198
203.9091
203.9091
203.9091
203.9091
203.9091
203.986
203.986
203.986
203.986
203.986
204.7622
204.7622
204.7622
204.7622
204.7622
202.9877
202.9877
202.9877
202.9877
202.9877
202.528
202.528
202.528
202.528
202.528
204.43
204.43
204.43
204.43
204.43
203.8499
203.8499
203.8499
203.8499
203.8499
204.0708
204.0708
204.0708
204.0708
204.0708
204.7461
204.7461
204.7461
204.7461
204.7461
203.0912
203.0912
203.0912
203.0912
203.0912
202.0291
202.0291
202.0291
202.0291
202.0291
203.39
203.39
203.39
203.39
203.39
203.266
203.266
203.266
203.266
203.266
204.5116
204.5116
204.5116
204.5116
204.5116
204.9407
204.9407
204.9407
204.9407
204.9407
203.4405
203.4405
203.4405
203.4405
203.4405
202.0152
202.0152
202.0152
202.0152
202.0152
202.022
202.022
202.022
202.022
202.022
203.1544
203.1544
203.1544
203.1544
203.1544
204.6321
204.6321
204.6321
204.6321
204.6321
204.0107
204.0107
204.0107
204.0107
204.0107
202.4468
202.4468
202.4468
202.4468
202.4468
202.6398
202.6398
202.6398
202.6398
202.6398
201.4776
201.4776
201.4776
201.4776
201.4776
202.5764
202.5764
202.5764
202.5764
202.5764
204.1172
204.1172
204.1172
204.1172
204.1172
203.2352
203.2352
203.2352
203.2352
203.2352
202.9599
202.9599
202.9599
202.9599
202.9599
203.6882
203.6882
203.6882
203.6882
203.6882
202.0025
202.0025
202.0025
202.0025
202.0025
202.4515
202.4515
202.4515
202.4515
202.4515
204.0737
204.0737
204.0737
204.0737
204.0737
203.1106
203.1106
203.1106
203.1106
203.1106
203.0362
203.0362
203.0362
203.0362
203.0362
203.9125
203.9125
203.9125
203.9125
203.9125
202.2375
202.2375
202.2375
202.2375
202.2375
202.3668
202.3668
202.3668
202.3668
202.3668
204.0107
204.0107
204.0107
204.0107
204.0107
203.0802
203.0802
203.0802
203.0802
203.0802
203.0769
203.0769
203.0769
203.0769
203.0769
204.0083
204.0083
204.0083
204.0083
204.0083
202.3632
202.3632
202.3632
202.3632
202.3632
202.2418
202.2418
202.2418
202.2418
202.2418
203.9248
203.9248
203.9248
203.9248
203.9248
203.0464
203.0464
203.0464
203.0464
203.0464
203.1124
203.1124
203.1124
203.1124
203.1124
204.0741
204.0741
204.0741
204.0741
204.0741
202.4522
202.4522
202.4522
202.4522
202.4522
202.013
202.013
202.013
202.013
202.013
203.6992
203.6992
203.6992
203.6992
203.6992
202.9559
202.9559
202.9559
202.9559
202.9559
203.2335
203.2335
203.2335
203.2335
203.2335
204.1146
204.1146
204.1146
204.1146
204.1146
202.5755
202.5755
202.5755
202.5755
202.5755
201.4778
201.4778
201.4778
201.4778
201.4778
202.6493
202.6493
202.6493
202.6493
202.6493
202.4508
202.4508
202.4508
202.4508
202.4508
204.0112
204.0112
204.0112
204.0112
204.0112
204.6252
204.6252
204.6252
204.6252
204.6252
203.1493
203.1493
203.1493
203.1493
203.1493
202.0296
202.0296
202.0296
202.0296
202.0296
201.4674
201.4674
201.4674
201.4674
201.4674
202.7064
202.7064
202.7064
202.7064
202.7064
204.0511
204.0511
204.0511
204.0511
204.0511
203.3907
203.3907
203.3907
203.3907
203.3907
201.8001
201.8001
201.8001
201.8001
201.8001
201.8885
201.8885
201.8885
201.8885
201.8885
201.1571
201.1571
201.1571
201.1571
201.1571
202.1485
202.1485
202.1485
202.1485
202.1485
203.4669
203.4669
203.4669
203.4669
203.4669
202.5599
202.5599
202.5599
202.5599
202.5599
202.2331
202.2331
202.2331
202.2331
202.2331
202.8733
202.8733
202.8733
202.8733
202.8733
201.637
201.637
201.637
201.637
201.637
201.9829
201.9829
201.9829
201.9829
201.9829
203.3353
203.3353
203.3353
203.3353
203.3353
202.4073
202.4073
202.4073
202.4073
202.4073
202.3207
202.3207
202.3207
202.3207
202.3207
203.118
203.118
203.118
203.118
203.118
201.8211
201.8211
201.8211
201.8211
201.8211
201.912
201.912
201.912
201.912
201.912
203.2193
203.2193
203.2193
203.2193
203.2193
202.3507
202.3507
202.3507
202.3507
202.3507
202.3478
202.3478
202.3478
202.3478
202.3478
203.2166
203.2166
203.2166
203.2166
203.2166
201.9223
201.9223
201.9223
201.9223
201.9223
201.8288
201.8288
201.8288
201.8288
201.8288
203.1261
203.1261
203.1261
203.1261
203.1261
202.3269
202.3269
202.3269
202.3269
202.3269
202.412
202.412
202.412
202.412
202.412
203.3446
203.3446
203.3446
203.3446
203.3446
201.9899
201.9899
201.9899
201.9899
201.9899
201.6453
201.6453
201.6453
201.6453
201.6453
202.8821
202.8821
202.8821
202.8821
202.8821
202.2397
202.2397
202.2397
202.2397
202.2397
202.5672
202.5672
202.5672
202.5672
202.5672
203.4706
203.4706
203.4706
203.4706
203.4706
202.152
202.152
202.152
202.152
202.152
201.1611
201.1611
201.1611
201.1611
201.1611
201.8969
201.8969
201.8969
201.8969
201.8969
201.7997
201.7997
201.7997
201.7997
201.7997
203.3953
203.3953
203.3953
203.3953
203.3953
204.0577
204.0577
204.0577
204.0577
204.0577
202.7148
202.7148
202.7148
202.7148
202.7148
201.4765
201.4765
201.4765
201.4765
201.4765
201.0198
201.0198
201.0198
201.0198
201.0198
202.2957
202.2957
202.2957
202.2957
202.2957
203.48
203.48
203.48
203.48
203.48
202.8663
202.8663
202.8663
202.8663
202.8663
201.2869
201.2869
201.2869
201.2869
201.2869
201.3212
201.3212
201.3212
201.3212
201.3212
200.7062
200.7062
200.7062
200.7062
200.7062
201.733
201.733
201.733
201.733
201.733
202.9094
202.9094
202.9094
202.9094
202.9094
202.0075
202.0075
202.0075
202.0075
202.0075
201.5881
201.5881
201.5881
201.5881
201.5881
202.2444
202.2444
202.2444
202.2444
202.2444
201.1477
201.1477
201.1477
201.1477
201.1477
201.4996
201.4996
201.4996
201.4996
201.4996
202.7217
202.7217
202.7217
202.7217
202.7217
201.7811
201.7811
201.7811
201.7811
201.7811
201.6839
201.6839
201.6839
201.6839
201.6839
202.48
202.48
202.48
202.48
202.48
201.3231
201.3231
201.3231
201.3231
201.3231
201.4279
201.4279
201.4279
201.4279
201.4279
202.5953
202.5953
202.5953
202.5953
202.5953
201.7245
201.7245
201.7245
201.7245
201.7245
201.7221
201.7221
201.7221
201.7221
201.7221
202.5929
202.5929
202.5929
202.5929
202.5929
201.424
201.424
201.424
201.424
201.424
201.325
201.325
201.325
201.325
201.325
202.4829
202.4829
202.4829
202.4829
202.4829
201.6853
201.6853
201.6853
201.6853
201.6853
201.781
201.781
201.781
201.781
201.781
202.7068
202.7068
202.7068
202.7068
202.7068
201.51
201.51
201.51
201.51
201.51
201.1589
201.1589
201.1589
201.1589
201.1589
202.2565
202.2565
202.2565
202.2565
202.2565
201.5984
201.5984
201.5984
201.5984
201.5984
201.9839
201.9839
201.9839
201.9839
201.9839
202.8856
202.8856
202.8856
202.8856
202.8856
201.7095
201.7095
201.7095
201.7095
201.7095
200.6832
200.6832
200.6832
200.6832
200.6832
201.3028
201.3028
201.3028
201.3028
201.3028
201.2666
201.2666
201.2666
201.2666
201.2666
202.8088
202.8088
202.8088
202.8088
202.8088
203.4239
203.4239
203.4239
203.4239
203.4239
202.2416
202.2416
202.2416
202.2416
202.2416
200.9662
200.9662
200.9662
200.9662
200.9662
200.5293
200.5293
200.5293
200.5293
200.5293
201.8304
201.8304
201.8304
201.8304
201.8304
202.8331
202.8331
202.8331
202.8331
202.8331
202.3154
202.3154
202.3154
202.3154
202.3154
200.7872
200.7872
200.7872
200.7872
200.7872
200.7339
200.7339
200.7339
200.7339
200.7339
200.211
200.211
200.211
200.211
200.211
201.282
201.282
201.282
201.282
201.282
202.3062
202.3062
202.3062
202.3062
202.3062
201.4512
201.4512
201.4512
201.4512
201.4512
201.0203
201.0203
201.0203
201.0203
201.0203
201.6848
201.6848
201.6848
201.6848
201.6848
200.6685
200.6685
200.6685
200.6685
200.6685
201.0626
201.0626
201.0626
201.0626
201.0626
202.1453
202.1453
202.1453
202.1453
202.1453
201.2509
201.2509
201.2509
201.2509
201.2509
201.174
201.174
201.174
201.174
201.174
201.9546
201.9546
201.9546
201.9546
201.9546
200.9065
200.9065
200.9065
200.9065
200.9065
201.0129
201.0129
201.0129
201.0129
201.0129
202.0692
202.0692
202.0692
202.0692
202.0692
201.2184
201.2184
201.2184
201.2184
201.2184
201.2164
201.2164
201.2164
201.2164
201.2164
202.0651
202.0651
202.0651
202.0651
202.0651
201.0093
201.0093
201.0093
201.0093
201.0093
200.9063
200.9063
200.9063
200.9063
200.9063
201.9235
201.9235
201.9235
201.9235
201.9235
201.1418
201.1418
201.1418
201.1418
201.1418
201.248
201.248
201.248
201.248
201.248
202.1403
202.1403
202.1403
202.1403
202.1403
201.0588
201.0588
201.0588
201.0588
201.0588
200.659
200.659
200.659
200.659
200.659
201.6764
201.6764
201.6764
201.6764
201.6764
201.0136
201.0136
201.0136
201.0136
201.0136
201.4458
201.4458
201.4458
201.4458
201.4458
202.2995
202.2995
202.2995
202.2995
202.2995
201.2762
201.2762
201.2762
201.2762
201.2762
200.2052
200.2052
200.2052
200.2052
200.2052
200.7346
200.7346
200.7346
200.7346
200.7346
200.782
200.782
200.782
200.782
200.782
202.3083
202.3083
202.3083
202.3083
202.3083
202.8324
202.8324
202.8324
202.8324
202.8324
201.8314
201.8314
201.8314
201.8314
201.8314
200.5213
200.5213
200.5213
200.5213
200.5213
200.1
200.1
200.1
200.1
200.1
201.4365
201.4365
201.4365
201.4365
201.4365
202.3454
202.3454
202.3454
202.3454
202.3454
201.9081
201.9081
201.9081
201.9081
201.9081
200.4574
200.4574
200.4574
200.4574
200.4574
200.3258
200.3258
200.3258
200.3258
200.3258
199.8418
199.8418
199.8418
199.8418
199.8418
200.9565
200.9565
200.9565
200.9565
200.9565
201.8667
201.8667
201.8667
201.8667
201.8667
201.0554
201.0554
201.0554
201.0554
201.0554
200.5908
200.5908
200.5908
200.5908
200.5908
201.253
201.253
201.253
201.253
201.253
200.2373
200.2373
200.2373
200.2373
200.2373
200.6773
200.6773
200.6773
200.6773
200.6773
201.6662
201.6662
201.6662
201.6662
201.6662
200.8003
200.8003
200.8003
200.8003
200.8003
200.6843
200.6843
200.6843
200.6843
200.6843
201.4523
201.4523
201.4523
201.4523
201.4523
200.4453
200.4453
200.4453
200.4453
200.4453
200.565
200.565
200.565
200.565
200.565
201.5624
201.5624
201.5624
201.5624
201.5624
200.7283
200.7283
200.7283
200.7283
200.7283
200.7265
200.7265
200.7265
200.7265
200.7265
201.5601
201.5601
201.5601
201.5601
201.5601
200.5637
200.5637
200.5637
200.5637
200.5637
200.4465
200.4465
200.4465
200.4465
200.4465
201.4552
201.4552
201.4552
201.4552
201.4552
200.6861
200.6861
200.6861
200.6861
200.6861
200.8
200.8
200.8
200.8
200.8
201.6634
201.6634
201.6634
201.6634
201.6634
200.6763
200.6763
200.6763
200.6763
200.6763
200.2369
200.2369
200.2369
200.2369
200.2369
201.2548
201.2548
201.2548
201.2548
201.2548
200.5906
200.5906
200.5906
200.5906
200.5906
201.0559
201.0559
201.0559
201.0559
201.0559
201.8657
201.8657
201.8657
201.8657
201.8657
200.9567
200.9567
200.9567
200.9567
200.9567
199.8421
199.8421
199.8421
199.8421
199.8421
200.3295
200.3295
200.3295
200.3295
200.3295
200.4556
200.4556
200.4556
200.4556
200.4556
201.905
201.905
201.905
201.905
201.905
202.3433
202.3433
202.3433
202.3433
202.3433
201.4361
201.4361
201.4361
201.4361
201.4361
200.0994
200.0994
200.0994
200.0994
200.0994
199.6959
199.6959
199.6959
199.6959
199.6959
201.0513
201.0513
201.0513
201.0513
201.0513
201.8486
201.8486
201.8486
201.8486
201.8486
201.4663
201.4663
201.4663
201.4663
201.4663
200.1016
200.1016
200.1016
200.1016
200.1016
199.925
199.925
199.925
199.925
199.925
199.4068
199.4068
199.4068
199.4068
199.4068
200.5887
200.5887
200.5887
200.5887
200.5887
201.4001
201.4001
201.4001
201.4001
201.4001
200.6425
200.6425
200.6425
200.6425
200.6425
200.1541
200.1541
200.1541
200.1541
200.1541
200.8004
200.8004
200.8004
200.8004
200.8004
199.8427
199.8427
199.8427
199.8427
199.8427
200.3112
200.3112
200.3112
200.3112
200.3112
201.2486
201.2486
201.2486
201.2486
201.2486
200.4115
200.4115
200.4115
200.4115
200.4115
200.2922
200.2922
200.2922
200.2922
200.2922
201.055
201.055
201.055
201.055
201.055
200.0898
200.0898
200.0898
200.0898
200.0898
200.2119
200.2119
200.2119
200.2119
200.2119
201.189
201.189
201.189
201.189
201.189
200.3744
200.3744
200.3744
200.3744
200.3744
200.3728
200.3728
200.3728
200.3728
200.3728
201.1884
201.1884
201.1884
201.1884
201.1884
200.2122
200.2122
200.2122
200.2122
200.2122
200.0929
200.0929
200.0929
200.0929
200.0929
201.0915
201.0915
201.0915
201.0915
201.0915
200.3275
200.3275
200.3275
200.3275
200.3275
200.4139
200.4139
200.4139
200.4139
200.4139
201.2483
201.2483
201.2483
201.2483
201.2483
200.3125
200.3125
200.3125
200.3125
200.3125
199.8514
199.8514
199.8514
199.8514
199.8514
200.8115
200.8115
200.8115
200.8115
200.8115
200.16
200.16
200.16
200.16
200.16
200.6487
200.6487
200.6487
200.6487
200.6487
201.4044
201.4044
201.4044
201.4044
201.4044
200.5941
200.5941
200.5941
200.5941
200.5941
199.4122
199.4122
199.4122
199.4122
199.4122
199.9315
199.9315
199.9315
199.9315
199.9315
200.1035
200.1035
200.1035
200.1035
200.1035
201.467
201.467
201.467
201.467
201.467
201.8446
201.8446
201.8446
201.8446
201.8446
201.0491
201.0491
201.0491
201.0491
201.0491
199.7028
199.7028
199.7028
199.7028
199.7028
199.3316
199.3316
199.3316
199.3316
199.3316
200.6816
200.6816
200.6816
200.6816
200.6816
201.4344
201.4344
201.4344
201.4344
201.4344
201.1051
201.1051
201.1051
201.1051
201.1051
199.8599
199.8599
199.8599
199.8599
199.8599
199.6703
199.6703
199.6703
199.6703
199.6703
199.1028
199.1028
199.1028
199.1028
199.1028
200.2844
200.2844
200.2844
200.2844
200.2844
201.0522
201.0522
201.0522
201.0522
201.0522
200.3528
200.3528
200.3528
200.3528
200.3528
199.8469
199.8469
199.8469
199.8469
199.8469
200.4641
200.4641
200.4641
200.4641
200.4641
199.527
199.527
199.527
199.527
199.527
199.9929
199.9929
199.9929
199.9929
199.9929
200.8883
200.8883
200.8883
200.8883
200.8883
200.0827
200.0827
200.0827
200.0827
200.0827
199.9573
199.9573
199.9573
199.9573
199.9573
200.6956
200.6956
200.6956
200.6956
200.6956
199.7083
199.7083
199.7083
199.7083
199.7083
199.8218
199.8218
199.8218
199.8218
199.8218
200.8052
200.8052
200.8052
200.8052
200.8052
200.0096
200.0096
200.0096
200.0096
200.0096
200.0082
200.0082
200.0082
200.0082
200.0082
200.8027
200.8027
200.8027
200.8027
200.8027
199.8216
199.8216
199.8216
199.8216
199.8216
199.7101
199.7101
199.7101
199.7101
199.7101
200.6986
200.6986
200.6986
200.6986
200.6986
199.9587
199.9587
199.9587
199.9587
199.9587
200.0826
200.0826
200.0826
200.0826
200.0826
200.8982
200.8982
200.8982
200.8982
200.8982
199.9801
199.9801
199.9801
199.9801
199.9801
199.5158
199.5158
199.5158
199.5158
199.5158
200.454
200.454
200.454
200.454
200.454
199.8358
199.8358
199.8358
199.8358
199.8358
200.377
200.377
200.377
200.377
200.377
201.0726
201.0726
201.0726
201.0726
201.0726
200.306
200.306
200.306
200.306
200.306
199.1261
199.1261
199.1261
199.1261
199.1261
199.6955
199.6955
199.6955
199.6955
199.6955
199.8779
199.8779
199.8779
199.8779
199.8779
201.156
201.156
201.156
201.156
201.156
201.4853
201.4853
201.4853
201.4853
201.4853
200.734
200.734
200.734
200.734
200.734
199.3837
199.3837
199.3837
199.3837
199.3837
198.9989
198.9989
198.9989
198.9989
198.9989
200.334
200.334
200.334
200.334
200.334
201.0586
201.0586
201.0586
201.0586
201.0586
200.7735
200.7735
200.7735
200.7735
200.7735
199.575
199.575
199.575
199.575
199.575
199.3811
199.3811
199.3811
199.3811
199.3811
198.7756
198.7756
198.7756
198.7756
198.7756
199.894
199.894
199.894
199.894
199.894
200.6502
200.6502
200.6502
200.6502
200.6502
200.0196
200.0196
200.0196
200.0196
200.0196
199.4517
199.4517
199.4517
199.4517
199.4517
200.0419
200.0419
200.0419
200.0419
200.0419
199.0991
199.0991
199.0991
199.0991
199.0991
199.5645
199.5645
199.5645
199.5645
199.5645
200.4863
200.4863
200.4863
200.4863
200.4863
199.7148
199.7148
199.7148
199.7148
199.7148
199.5733
199.5733
199.5733
199.5733
199.5733
200.2738
200.2738
200.2738
200.2738
200.2738
199.3033
199.3033
199.3033
199.3033
199.3033
199.4114
199.4114
199.4114
199.4114
199.4114
200.4162
200.4162
200.4162
200.4162
200.4162
199.6403
199.6403
199.6403
199.6403
199.6403
199.6396
199.6396
199.6396
199.6396
199.6396
200.4138
200.4138
200.4138
200.4138
200.4138
199.4126
199.4126
199.4126
199.4126
199.4126
199.3018
199.3018
199.3018
199.3018
199.3018
200.2727
200.2727
200.2727
200.2727
200.2727
199.5705
199.5705
199.5705
199.5705
199.5705
199.7106
199.7106
199.7106
199.7106
199.7106
200.474
200.474
200.474
200.474
200.474
199.5968
199.5968
199.5968
199.5968
199.5968
199.1327
199.1327
199.1327
199.1327
199.1327
200.0781
200.0781
200.0781
200.0781
200.0781
199.4863
199.4863
199.4863
199.4863
199.4863
199.9967
199.9967
199.9967
199.9967
199.9967
200.6184
200.6184
200.6184
200.6184
200.6184
199.8634
199.8634
199.8634
199.8634
199.8634
198.7465
198.7465
198.7465
198.7465
198.7465
199.3537
199.3537
199.3537
199.3537
199.3537
199.5329
199.5329
199.5329
199.5329
199.5329
200.6845
200.6845
200.6845
200.6845
200.6845
200.9687
200.9687
200.9687
200.9687
200.9687
200.2457
200.2457
200.2457
200.2457
200.2457
198.9117
198.9117
198.9117
198.9117
198.9117
198.5851
198.5851
198.5851
198.5851
198.5851
199.8828
199.8828
199.8828
199.8828
199.8828
200.5903
200.5903
200.5903
200.5903
200.5903
200.3627
200.3627
200.3627
200.3627
200.3627
199.2482
199.2482
199.2482
199.2482
199.2482
199.0327
199.0327
199.0327
199.0327
199.0327
198.4129
198.4129
198.4129
198.4129
198.4129
199.4719
199.4719
199.4719
199.4719
199.4719
200.2185
200.2185
200.2185
200.2185
200.2185
199.652
199.652
199.652
199.652
199.652
199.1529
199.1529
199.1529
199.1529
199.1529
199.7319
199.7319
199.7319
199.7319
199.7319
198.765
198.765
198.765
198.765
198.765
199.2054
199.2054
199.2054
199.2054
199.2054
200.1487
200.1487
200.1487
200.1487
200.1487
199.427
199.427
199.427
199.427
199.427
199.3117
199.3117
199.3117
199.3117
199.3117
199.9796
199.9796
199.9796
199.9796
199.9796
199.0063
199.0063
199.0063
199.0063
199.0063
199.1143
199.1143
199.1143
199.1143
199.1143
200.1373
200.1373
200.1373
200.1373
200.1373
199.3846
199.3846
199.3846
199.3846
199.3846
199.3844
199.3844
199.3844
199.3844
199.3844
200.1324
200.1324
200.1324
200.1324
200.1324
199.1096
199.1096
199.1096
199.1096
199.1096
199.0062
199.0062
199.0062
199.0062
199.0062
199.9356
199.9356
199.9356
199.9356
199.9356
199.2666
199.2666
199.2666
199.2666
199.2666
199.4238
199.4238
199.4238
199.4238
199.4238
200.1402
200.1402
200.1402
200.1402
200.1402
199.1996
199.1996
199.1996
199.1996
199.1996
198.7579
198.7579
198.7579
198.7579
198.7579
199.7265
199.7265
199.7265
199.7265
199.7265
199.1479
199.1479
199.1479
199.1479
199.1479
199.6466
199.6466
199.6466
199.6466
199.6466
200.2118
200.2118
200.2118
200.2118
200.2118
199.4673
199.4673
199.4673
199.4673
199.4673
198.4078
198.4078
198.4078
198.4078
198.4078
199.032
199.032
199.032
199.032
199.032
199.246
199.246
199.246
199.246
199.246
200.3591
200.3591
200.3591
200.3591
200.3591
200.5897
200.5897
200.5897
200.5897
200.5897
199.8828
199.8828
199.8828
199.8828
199.8828
198.5781
198.5781
198.5781
198.5781
198.5781
198.2681
198.2681
198.2681
198.2681
198.2681
199.5128
199.5128
199.5128
199.5128
199.5128
200.2695
200.2695
200.2695
200.2695
200.2695
200.1165
200.1165
200.1165
200.1165
200.1165
199.1042
199.1042
199.1042
199.1042
199.1042
198.8054
198.8054
198.8054
198.8054
198.8054
198.1801
198.1801
198.1801
198.1801
198.1801
199.1706
199.1706
199.1706
199.1706
199.1706
199.9206
199.9206
199.9206
199.9206
199.9206
199.4125
199.4125
199.4125
199.4125
199.4125
198.9479
198.9479
198.9479
198.9479
198.9479
199.5133
199.5133
199.5133
199.5133
199.5133
198.4733
198.4733
198.4733
198.4733
198.4733
198.8728
198.8728
198.8728
198.8728
198.8728
199.834
199.834
199.834
199.834
199.834
199.1638
199.1638
199.1638
199.1638
199.1638
199.01
199.01
199.01
199.01
199.01
199.6577
199.6577
199.6577
199.6577
199.6577
198.6468
198.6468
198.6468
198.6468
198.6468
198.7562
198.7562
198.7562
198.7562
198.7562
199.7835
199.7835
199.7835
199.7835
199.7835
199.0819
199.0819
199.0819
199.0819
199.0819
199.0819
199.0819
199.0819
199.0819
199.0819
199.781
199.781
199.781
199.781
199.781
198.7542
198.7542
198.7542
198.7542
198.7542
198.6493
198.6493
198.6493
198.6493
198.6493
199.6602
199.6602
199.6602
199.6602
199.6602
199.0105
199.0105
199.0105
199.0105
199.0105
199.163
199.163
199.163
199.163
199.163
199.8266
199.8266
199.8266
199.8266
199.8266
198.8687
198.8687
198.8687
198.8687
198.8687
198.4752
198.4752
198.4752
198.4752
198.4752
199.5173
199.5173
199.5173
199.5173
199.5173
198.9487
198.9487
198.9487
198.9487
198.9487
199.4127
199.4127
199.4127
199.4127
199.4127
199.9195
199.9195
199.9195
199.9195
199.9195
199.1707
199.1707
199.1707
199.1707
199.1707
198.1795
198.1795
198.1795
198.1795
198.1795
198.8077
198.8077
198.8077
198.8077
198.8077
199.1042
199.1042
199.1042
199.1042
199.1042
200.1152
200.1152
200.1152
200.1152
200.1152
200.2668
200.2668
200.2668
200.2668
200.2668
199.5101
199.5101
199.5101
199.5101
199.5101
198.2672
198.2672
198.2672
198.2672
198.2672
197.9668
197.9668
197.9668
197.9668
197.9668
199.1262
199.1262
199.1262
199.1262
199.1262
199.874
199.874
199.874
199.874
199.874
199.7951
199.7951
199.7951
199.7951
199.7951
198.8905
198.8905
198.8905
198.8905
198.8905
198.5077
198.5077
198.5077
198.5077
198.5077
197.8782
197.8782
197.8782
197.8782
197.8782
198.769
198.769
198.769
198.769
198.769
199.5561
199.5561
199.5561
199.5561
199.5561
199.0995
199.0995
199.0995
199.0995
199.0995
198.676
198.676
198.676
198.676
198.676
199.2216
199.2216
199.2216
199.2216
199.2216
198.195
198.195
198.195
198.195
198.195
198.5568
198.5568
198.5568
198.5568
198.5568
199.5255
199.5255
199.5255
199.5255
199.5255
198.9126
198.9126
198.9126
198.9126
198.9126
198.7877
198.7877
198.7877
198.7877
198.7877
199.424
199.424
199.424
199.424
199.424
198.4085
198.4085
198.4085
198.4085
198.4085
198.5072
198.5072
198.5072
198.5072
198.5072
199.5307
199.5307
199.5307
199.5307
199.5307
198.8933
198.8933
198.8933
198.8933
198.8933
198.8938
198.8938
198.8938
198.8938
198.8938
199.5301
199.5301
199.5301
199.5301
199.5301
198.5078
198.5078
198.5078
198.5078
198.5078
198.414
198.414
198.414
198.414
198.414
199.4726
199.4726
199.4726
199.4726
199.4726
198.8336
198.8336
198.8336
198.8336
198.8336
198.9141
198.9141
198.9141
198.9141
198.9141
199.5202
199.5202
199.5202
199.5202
199.5202
198.5548
198.5548
198.5548
198.5548
198.5548
198.2049
198.2049
198.2049
198.2049
198.2049
199.234
199.234
199.234
199.234
199.234
198.6825
198.6825
198.6825
198.6825
198.6825
199.1054
199.1054
199.1054
199.1054
199.1054
199.5602
199.5602
199.5602
199.5602
199.5602
198.7722
198.7722
198.7722
198.7722
198.7722
197.8826
197.8826
197.8826
197.8826
197.8826
198.5137
198.5137
198.5137
198.5137
198.5137
198.8921
198.8921
198.8921
198.8921
198.8921
199.7956
199.7956
199.7956
199.7956
199.7956
199.8692
199.8692
199.8692
199.8692
199.8692
199.1214
199.1214
199.1214
199.1214
199.1214
197.9719
197.9719
197.9719
197.9719
197.9719
197.6784
197.6784
197.6784
197.6784
197.6784
198.7305
198.7305
198.7305
198.7305
198.7305
199.5225
199.5225
199.5225
199.5225
199.5225
199.5328
199.5328
199.5328
199.5328
199.5328
198.7836
198.7836
198.7836
198.7836
198.7836
198.3472
198.3472
198.3472
198.3472
198.3472
197.6898
197.6898
197.6898
197.6898
197.6898
198.4942
198.4942
198.4942
198.4942
198.4942
199.3459
199.3459
199.3459
199.3459
199.3459
198.9252
198.9252
198.9252
198.9252
198.9252
198.5314
198.5314
198.5314
198.5314
198.5314
199.0373
199.0373
199.0373
199.0373
199.0373
197.9894
197.9894
197.9894
197.9894
197.9894
198.3144
198.3144
198.3144
198.3144
198.3144
199.2532
199.2532
199.2532
199.2532
199.2532
198.6927
198.6927
198.6927
198.6927
198.6927
198.5919
198.5919
198.5919
198.5919
198.5919
199.2054
199.2054
199.2054
199.2054
199.2054
198.1082
198.1082
198.1082
198.1082
198.1082
198.195
198.195
198.195
198.195
198.195
199.2053
199.2053
199.2053
199.2053
199.2053
198.6454
198.6454
198.6454
198.6454
198.6454
198.6458
198.6458
198.6458
198.6458
198.6458
199.2006
199.2006
199.2006
199.2006
199.2006
198.1905
198.1905
198.1905
198.1905
198.1905
198.1159
198.1159
198.1159
198.1159
198.1159
199.2137
199.2137
199.2137
199.2137
199.2137
198.5963
198.5963
198.5963
198.5963
198.5963
198.695
198.695
198.695
198.695
198.695
199.2531
199.2531
199.2531
199.2531
199.2531
198.276
198.276
198.276
198.276
198.276
197.957
197.957
197.957
197.957
197.957
199.007
199.007
199.007
199.007
199.007
198.4983
198.4983
198.4983
198.4983
198.4983
198.9486
198.9486
198.9486
198.9486
198.9486
199.3734
199.3734
199.3734
199.3734
199.3734
198.5216
198.5216
198.5216
198.5216
198.5216
197.7199
197.7199
197.7199
197.7199
197.7199
198.3813
198.3813
198.3813
198.3813
198.3813
198.8241
198.8241
198.8241
198.8241
198.8241
199.6173
199.6173
199.6173
199.6173
199.6173
199.6065
199.6065
199.6065
199.6065